
                                 *****************
                                 * O   R   C   A *
                                 *****************

           --- An Ab Initio, DFT and Semiempirical electronic structure package ---

                  #######################################################
                  #                        -***-                        #
                  #  Department of molecular theory and spectroscopy    #
                  #              Directorship: Frank Neese              #
                  # Max Planck Institute for Chemical Energy Conversion #
                  #                  D-45470 Muelheim/Ruhr              #
                  #                       Germany                       #
                  #                                                     #
                  #                  All rights reserved                #
                  #                        -***-                        #
                  #######################################################


                         Program Version 4.0.1.2 - RELEASE -


 With contributions from (in alphabetic order):
   Daniel Aravena         : Magnetic Properties
   Michael Atanasov       : Ab Initio Ligand Field Theory
   Ute Becker             : Parallelization
   Martin Brehm           : Molecular dynamics
   Dmytro Bykov           : SCF Hessian
   Vijay G. Chilkuri      : MRCI spin determinant printing
   Dipayan Datta          : RHF DLPNO-CCSD density
   Achintya Kumar Dutta   : EOM-CC, STEOM-CC
   Dmitry Ganyushin       : Spin-Orbit,Spin-Spin,Magnetic field MRCI
   Yang Guo               : DLPNO-NEVPT2, CIM, IAO-localization
   Andreas Hansen         : Spin unrestricted coupled pair/coupled cluster methods
   Lee Huntington         : MR-EOM, pCC
   Robert Izsak           : Overlap fitted RIJCOSX, COSX-SCS-MP3, EOM
   Christian Kollmar      : KDIIS, OOCD, Brueckner-CCSD(T), CCSD density
   Simone Kossmann        : Meta GGA functionals, TD-DFT gradient, OOMP2, MP2 Hessian
   Martin Krupicka        : AUTO-CI
   Dagmar Lenk            : GEPOL surface
   Dimitrios Liakos       : Extrapolation schemes; parallel MDCI
   Dimitrios Manganas     : ROCIS; embedding schemes
   Dimitrios Pantazis     : SARC Basis sets
   Taras Petrenko         : DFT Hessian,TD-DFT gradient, ASA, ECA, R-Raman, ABS, FL, XAS/XES, NRVS
   Peter Pinski           : DLPNO-MP2
   Christoph Reimann      : Effective Core Potentials
   Marius Retegan         : Local ZFS, SOC
   Christoph Riplinger    : Optimizer, TS searches, QM/MM, DLPNO-CCSD(T), (RO)-DLPNO pert. Triples
   Tobias Risthaus        : Range-separated hybrids, TD-DFT gradient, RPA, STAB
   Michael Roemelt        : Restricted open shell CIS
   Masaaki Saitow         : Open-shell DLPNO
   Barbara Sandhoefer     : DKH picture change effects
   Kantharuban Sivalingam : CASSCF convergence, NEVPT2, FIC-MRCI
   Georgi Stoychev        : AutoAux
   Boris Wezisla          : Elementary symmetry handling
   Frank Wennmohs         : Technical directorship


 We gratefully acknowledge several colleagues who have allowed us to
 interface, adapt or use parts of their codes:
   Stefan Grimme, W. Hujo, H. Kruse,             : VdW corrections, initial TS optimization,
                  C. Bannwarth                     DFT functionals, gCP, sTDA/sTD-DF
   Ed Valeev                                     : LibInt (2-el integral package), F12 methods
   Garnet Chan, S. Sharma, J. Yang, R. Olivares  : DMRG
   Ulf Ekstrom                                   : XCFun DFT Library
   Mihaly Kallay                                 : mrcc  (arbitrary order and MRCC methods)
   Andreas Klamt, Michael Diedenhofen            : otool_cosmo (COSMO solvation model)
   Jiri Pittner, Ondrej Demel                    : Mk-CCSD
   Frank Weinhold                                : gennbo (NPA and NBO analysis)
   Christopher J. Cramer and Donald G. Truhlar   : smd solvation model


 Your calculation uses the libint2 library for the computation of 2-el integrals
 For citations please refer to: http://libint.valeyev.net

 This ORCA versions uses:
   CBLAS   interface :  Fast vector & matrix operations
   LAPACKE interface :  Fast linear algebra routines
   SCALAPACK package :  Parallel linear algebra routines


Your calculation utilizes the basis: def2-TZVP
   F. Weigend and R. Ahlrichs, Phys. Chem. Chem. Phys. 7, 3297 (2005).

================================================================================
                                        WARNINGS
                       Please study these warnings very carefully!
================================================================================

Warning: TCutStore was < 0. Adjusted to Thresh (uncritical)

WARNING: Geometry Optimization
  ===> : Switching off AutoStart
         For restart on a previous wavefunction, please use MOREAD

INFO   : the flag for use of LIBINT has been found!

================================================================================
                                       INPUT FILE
================================================================================
NAME = Scheme-2.5.inp
|  1> # avogadro generated ORCA input file 
|  2> # Basic Mode
|  3> # 
|  4> ! B3LYP def2-TZVP Opt
|  5> %pal nprocs 4 end
|  6> 
|  7> * xyz 0 1
|  8>    C       -4.42246       -4.13954        0.47354
|  9>    C       -1.92923       -4.12800        0.42854
| 10>    C       -5.39332       -3.17365        0.38965
| 11>    C       -3.20217       -3.45419        0.38538
| 12>    C        0.57100       -4.17834        0.37896
| 13>    C       -0.70422       -3.49096        0.33882
| 14>    H       -4.59443       -5.21928        0.58515
| 15>    C        1.58947       -3.17179        0.27765
| 16>    C       -4.71918       -1.94442        0.25400
| 17>    H       -2.00521       -5.21438        0.53710
| 18>    N       -3.35203       -2.10271        0.24999
| 19>    H        0.72401       -5.25884        0.49693
| 20>   Ni       -1.94929       -0.70752        0.08035
| 21>    C        0.83825       -1.98235        0.14669
| 22>    N       -0.52699       -2.12229        0.19903
| 23>    C       -5.37805       -0.77426        0.14033
| 24>    H       -6.47454       -3.35182        0.42360
| 25>    C        1.52381       -0.85686       -0.00030
| 26>    C       -4.71509        0.53880       -0.00340
| 27>    N       -3.35897        0.71091       -0.03898
| 28>    C        0.81733        0.49556       -0.10204
| 29>    C       -5.42223        1.76417       -0.12492
| 30>    N       -0.55828        0.67239       -0.08751
| 31>    H       -6.47077       -0.78093        0.15481
| 32>    C       -3.23182        2.06704       -0.18733
| 33>    C       -0.75210        2.04348       -0.23139
| 34>    C        1.43220        1.73393       -0.25697
| 35>    C       -4.46948        2.75166       -0.24354
| 36>    C       -1.95819        2.72045       -0.28187
| 37>    C        0.48354        2.69731       -0.33167
| 38>    H       -6.51139        1.94020       -0.12896
| 39>    H        2.38410        2.03606       -0.31564
| 40>    H       -4.68935        3.83884       -0.35797
| 41>    H       -2.00696        3.81321       -0.40215
| 42>    H        0.67593        3.76863       -0.44374
| 43>    C        5.72174        4.48410        1.96999
| 44>    C        4.50816        3.80523        1.99923
| 45>    C        4.45849        2.38815        2.20397
| 46>    C        5.72188        1.64087        2.16888
| 47>    C        6.91337        2.42209        2.32777
| 48>    C        6.89657        3.81158        2.21269
| 49>    C        3.34518        4.57116        1.86448
| 50>    C        2.09838        3.99975        2.00359
| 51>    C        1.98355        2.66567        2.37989
| 52>    C        3.14612        1.84862        2.52103
| 53>    H        7.81296        4.38744        2.28445
| 54>    H        5.75686        5.56136        1.84909
| 55>    H        3.40026        5.63656        1.67046
| 56>    H        1.21943        4.62612        1.89656
| 57>    C        8.13968        1.82625        2.61269
| 58>    C        8.23946        0.46231        2.75127
| 59>    C        7.16057       -0.35752        2.43392
| 60>    C        5.91155        0.19052        2.00532
| 61>    H        9.02638        2.42792        2.78063
| 62>    H        9.19778        0.04001        3.03365
| 63>    C        4.99478       -0.76844        1.37628
| 64>    C        5.21648       -2.17157        1.51494
| 65>    C        6.38462       -2.62249        2.13445
| 66>    C        7.36394       -1.73424        2.51968
| 67>    H        6.59489       -3.67929        2.23867
| 68>    H        8.30127       -2.13542        2.88985
| 69>    C        0.69964        2.15230        2.64169
| 70>    C        0.54060        0.85243        3.10317
| 71>    C        1.65917        0.06584        3.33969
| 72>    C        2.93742        0.55658        3.06706
| 73>    H       -0.18290        2.76709        2.50213
| 74>    H       -0.44862        0.46846        3.31438
| 75>    H        1.53874       -0.93007        3.74631
| 76>    H        3.74816       -0.09261        3.33053
| 77>    C        3.91769       -0.41408        0.54472
| 78>    C        2.96266       -1.30219        0.12932
| 79>    C        3.07819       -2.67164        0.36083
| 80>    C        4.28292       -3.14096        1.00426
| 81>    O        4.52897       -4.45082        1.23628
| 82>    C        3.74950       -5.49620        0.80007
| 83>    H        2.74309       -5.42981        1.25491
| 84>    H        4.21479       -6.45073        1.11852
| 85>    H        3.67509       -5.49104       -0.30868
| 86>    O        3.80281        0.80038        0.15345
| 87>    C        4.50577        1.44440       -0.85292
| 88>    H        5.53599        1.50287       -0.52747
| 89>    H        4.40220        0.89174       -1.80187
| 90>    H        4.13421        2.50007       -1.03420
| 91> *
| 92> 
| 93> 
| 94>                          ****END OF INPUT****
================================================================================

                       *****************************
                       * Geometry Optimization Run *
                       *****************************

Geometry optimization settings:
Update method            Update   .... BFGS
Choice of coordinates    CoordSys .... Redundant Internals
Initial Hessian          InHess   .... Almoef's Model

Convergence Tolerances:
Energy Change            TolE     ....  5.0000e-06 Eh
Max. Gradient            TolMAXG  ....  3.0000e-04 Eh/bohr
RMS Gradient             TolRMSG  ....  1.0000e-04 Eh/bohr
Max. Displacement        TolMAXD  ....  4.0000e-03 bohr
RMS Displacement         TolRMSD  ....  2.0000e-03 bohr

------------------------------------------------------------------------------
                        ORCA OPTIMIZATION COORDINATE SETUP
------------------------------------------------------------------------------

The optimization will be done in new redundant internal coordinates
Making redundant internal coordinates   ...  (new redundants) done
Evaluating the initial hessian          ...  (Almloef) done
Evaluating the coordinates              ...  done
Calculating the B-matrix                .... done
Calculating the G-matrix                .... done
Diagonalizing the G-matrix              .... done
Small eigenvalue found = 8.921e-04
Small eigenvalue found = 2.150e-03
Small eigenvalue found = 3.750e-03
Small eigenvalue found = 5.006e-03
Small eigenvalue found = 8.179e-03
Small eigenvalue found = 1.124e-02
Small eigenvalue found = 1.310e-02
Small eigenvalue found = 1.705e-02
Small eigenvalue found = 1.923e-02
Small eigenvalue found = 2.300e-02
The first mode is                       ....  300
The number of degrees of freedom        ....  243

    -----------------------------------------------------------------
                    Redundant Internal Coordinates


    -----------------------------------------------------------------
         Definition                    Initial Value    Approx d2E/dq
    -----------------------------------------------------------------
      1. B(C   2,C   0)                  1.3721         0.667359   
      2. B(C   3,C   0)                  1.4023         0.597084   
      3. B(C   3,C   1)                  1.4409         0.518196   
      4. B(C   5,C   4)                  1.4492         0.502608   
      5. B(C   5,C   1)                  1.3837         0.639516   
      6. B(H   6,C   0)                  1.0990         0.348349   
      7. B(C   7,C   4)                  1.4355         0.528605   
      8. B(C   8,C   2)                  1.4085         0.583745   
      9. B(H   9,C   1)                  1.0944         0.354285   
     10. B(N  10,C   8)                  1.3763         0.588506   
     11. B(N  10,C   3)                  1.3665         0.610083   
     12. B(H  11,C   4)                  1.0976         0.350136   
     13. B(Ni 12,N  10)                  1.9857         0.634740   
     14. B(C  13,C   7)                  1.4129         0.574413   
     15. B(N  14,C   5)                  1.3872         0.565469   
     16. B(N  14,Ni 12)                  2.0096         0.581335   
     17. B(N  14,C  13)                  1.3734         0.594804   
     18. B(C  15,C   8)                  1.3477         0.729827   
     19. B(H  16,C   2)                  1.0963         0.351826   
     20. B(C  17,C  13)                  1.3260         0.790344   
     21. B(C  18,C  15)                  1.4779         0.452313   
     22. B(N  19,Ni 12)                  2.0033         0.594910   
     23. B(N  19,C  18)                  1.3675         0.607904   
     24. B(C  20,C  17)                  1.5292         0.374651   
     25. B(C  21,C  18)                  1.4200         0.559636   
     26. B(N  22,C  20)                  1.3870         0.565788   
     27. B(N  22,Ni 12)                  1.9665         0.681059   
     28. B(H  23,C  15)                  1.0928         0.356367   
     29. B(C  24,N  19)                  1.3701         0.601967   
     30. B(C  25,N  22)                  1.3922         0.555141   
     31. B(C  26,C  20)                  1.3913         0.621891   
     32. B(C  27,C  24)                  1.4155         0.568906   
     33. B(C  27,C  21)                  1.3773         0.654651   
     34. B(C  28,C  25)                  1.3840         0.638692   
     35. B(C  28,C  24)                  1.4346         0.530416   
     36. B(C  29,C  26)                  1.3541         0.712829   
     37. B(C  29,C  25)                  1.4016         0.598830   
     38. B(H  30,C  21)                  1.1033         0.342928   
     39. B(H  31,C  26)                  1.0004         0.500431   
     40. B(H  32,C  27)                  1.1151         0.328408   
     41. B(H  33,C  28)                  1.1004         0.346550   
     42. B(H  34,C  29)                  1.0942         0.354571   
     43. B(C  36,C  35)                  1.3909         0.622822   
     44. B(C  37,C  36)                  1.4327         0.534176   
     45. B(C  38,C  37)                  1.4683         0.468669   
     46. B(C  39,C  38)                  1.4336         0.532333   
     47. B(C  40,C  39)                  1.3943         0.614894   
     48. B(C  40,C  35)                  1.3753         0.659498   
     49. B(C  41,C  36)                  1.3990         0.604375   
     50. B(C  42,C  41)                  1.3785         0.651663   
     51. B(C  43,C  42)                  1.3909         0.622772   
     52. B(C  44,C  43)                  1.4280         0.543477   
     53. B(C  44,C  37)                  1.4539         0.494004   
     54. B(H  45,C  40)                  1.0847         0.367204   
     55. B(H  46,C  35)                  1.0846         0.367326   
     56. B(H  47,C  41)                  1.0843         0.367690   
     57. B(H  48,C  42)                  1.0846         0.367321   
     58. B(C  49,C  39)                  1.3929         0.618281   
     59. B(C  50,C  49)                  1.3746         0.661191   
     60. B(C  51,C  50)                  1.3917         0.620901   
     61. B(C  52,C  51)                  1.4297         0.539969   
     62. B(C  52,C  38)                  1.4718         0.462601   
     63. B(H  53,C  49)                  1.0846         0.367259   
     64. B(H  54,C  50)                  1.0846         0.367255   
     65. B(C  55,C  52)                  1.4683         0.468698   
     66. B(C  56,C  55)                  1.4273         0.544813   
     67. B(C  57,C  56)                  1.3970         0.608884   
     68. B(C  58,C  57)                  1.3771         0.655072   
     69. B(C  58,C  51)                  1.3943         0.615005   
     70. B(H  59,C  57)                  1.0825         0.370100   
     71. B(H  60,C  58)                  1.0847         0.367189   
     72. B(C  61,C  43)                  1.4073         0.586309   
     73. B(C  62,C  61)                  1.3885         0.628259   
     74. B(C  63,C  62)                  1.3878         0.629970   
     75. B(C  64,C  63)                  1.3961         0.610967   
     76. B(C  64,C  44)                  1.4181         0.563470   
     77. B(H  65,C  61)                  1.0846         0.367338   
     78. B(H  66,C  62)                  1.0819         0.370919   
     79. B(H  67,C  63)                  1.0824         0.370239   
     80. B(H  68,C  64)                  1.0715         0.385390   
     81. B(C  69,C  55)                  1.4061         0.588861   
     82. B(C  70,C  69)                  1.3687         0.675614   
     83. B(C  70,C  17)                  1.5118         0.399469   
     84. B(C  71,C  70)                  1.3937         0.616412   
     85. B(C  71,C   7)                  1.5727         0.319350   
     86. B(C  72,C  71)                  1.4442         0.512045   
     87. B(C  72,C  56)                  1.4395         0.520989   
     88. B(O  73,C  72)                  1.3528         0.641509   
     89. B(C  74,O  73)                  1.3750         0.591262   
     90. B(H  75,C  74)                  1.1064         0.339030   
     91. B(H  76,C  74)                  1.1086         0.336295   
     92. B(H  77,C  74)                  1.1113         0.333051   
     93. B(O  78,C  69)                  1.2811         0.834887   
     94. B(C  79,O  78)                  1.3863         0.567355   
     95. B(H  80,C  79)                  1.0820         0.370862   
     96. B(H  81,C  79)                  1.1030         0.343274   
     97. B(H  82,C  79)                  1.1337         0.306651   
     98. A(C   2,C   0,H   6)          125.9517         0.355335   
     99. A(C   2,C   0,C   3)          105.5361         0.436885   
    100. A(C   3,C   0,H   6)          128.5122         0.348711   
    101. A(C   5,C   1,H   9)          121.6622         0.353789   
    102. A(C   3,C   1,H   9)          113.9428         0.341478   
    103. A(C   3,C   1,C   5)          124.3946         0.422670   
    104. A(C   8,C   2,H  16)          128.0858         0.347968   
    105. A(C   0,C   2,C   8)          106.3551         0.435111   
    106. A(C   0,C   2,H  16)          125.5591         0.355935   
    107. A(C   0,C   3,N  10)          113.2128         0.427086   
    108. A(C   1,C   3,N  10)          124.2177         0.416414   
    109. A(C   0,C   3,C   1)          122.5688         0.417525   
    110. A(C   7,C   4,H  11)          126.7922         0.341941   
    111. A(C   5,C   4,C   7)          106.8439         0.406389   
    112. A(C   5,C   4,H  11)          126.3372         0.339071   
    113. A(C   1,C   5,N  14)          125.0237         0.426529   
    114. A(C   4,C   5,N  14)          110.9989         0.408618   
    115. A(C   1,C   5,C   4)          123.9774         0.420371   
    116. A(C  13,C   7,C  71)          103.9148         0.380865   
    117. A(C   4,C   7,C  71)          152.9815         0.375426   
    118. A(C   4,C   7,C  13)          102.6858         0.416129   
    119. A(N  10,C   8,C  15)          125.8208         0.439930   
    120. A(C   2,C   8,N  10)          112.0460         0.422631   
    121. A(C   2,C   8,C  15)          122.1329         0.442192   
    122. A(C   3,N  10,C   8)          102.8501         0.423207   
    123. A(C   8,N  10,Ni 12)          128.4015         0.479404   
    124. A(C   3,N  10,Ni 12)          128.7479         0.482599   
    125. A(N  10,Ni 12,N  14)           90.0160         0.539726   
    126. A(N  19,Ni 12,N  22)           89.7607         0.549368   
    127. A(N  14,Ni 12,N  22)           89.9093         0.546969   
    128. A(N  10,Ni 12,N  19)           90.3141         0.542087   
    129. A(N  14,C  13,C  17)          127.2034         0.447177   
    130. A(C   7,C  13,C  17)          116.7390         0.447308   
    131. A(C   7,C  13,N  14)          116.0544         0.422218   
    132. A(C   5,N  14,C  13)          103.3785         0.418304   
    133. A(Ni 12,N  14,C  13)          129.0176         0.472638   
    134. A(C   5,N  14,Ni 12)          127.5996         0.468271   
    135. A(C   8,C  15,C  18)          124.0767         0.422377   
    136. A(C  18,C  15,H  23)          117.0800         0.334150   
    137. A(C   8,C  15,H  23)          118.8432         0.362188   
    138. A(C  13,C  17,C  20)          121.2765         0.414274   
    139. A(C  20,C  17,C  70)          134.9050         0.367726   
    140. A(C  13,C  17,C  70)          103.4466         0.419030   
    141. A(N  19,C  18,C  21)          112.5211         0.421896   
    142. A(C  15,C  18,C  21)          123.4779         0.402932   
    143. A(C  15,C  18,N  19)          124.0006         0.406234   
    144. A(C  18,N  19,C  24)          102.6752         0.424651   
    145. A(Ni 12,N  19,C  24)          129.9369         0.475694   
    146. A(Ni 12,N  19,C  18)          127.3848         0.476554   
    147. A(N  22,C  20,C  26)          109.0265         0.424443   
    148. A(C  17,C  20,C  26)          126.1874         0.397097   
    149. A(C  17,C  20,N  22)          124.7674         0.388092   
    150. A(C  18,C  21,H  30)          129.0210         0.344025   
    151. A(C  18,C  21,C  27)          106.3555         0.430334   
    152. A(C  27,C  21,H  30)          124.6235         0.353239   
    153. A(C  20,N  22,C  25)          105.2217         0.413242   
    154. A(Ni 12,N  22,C  25)          126.9713         0.480472   
    155. A(Ni 12,N  22,C  20)          127.8043         0.482159   
    156. A(C  27,C  24,C  28)          123.5973         0.415669   
    157. A(N  19,C  24,C  28)          122.7069         0.417150   
    158. A(N  19,C  24,C  27)          113.6952         0.422394   
    159. A(C  28,C  25,C  29)          122.5130         0.433673   
    160. A(N  22,C  25,C  29)          110.1264         0.420159   
    161. A(N  22,C  25,C  28)          127.3599         0.425025   
    162. A(C  20,C  26,C  29)          109.2556         0.445382   
    163. A(C  29,C  26,H  31)          116.6477         0.382438   
    164. A(C  20,C  26,H  31)          134.0957         0.373513   
    165. A(C  21,C  27,C  24)          104.7528         0.431605   
    166. A(C  24,C  27,H  32)          130.3937         0.342480   
    167. A(C  21,C  27,H  32)          124.8534         0.350664   
    168. A(C  24,C  28,C  25)          123.2631         0.424337   
    169. A(C  25,C  28,H  33)          121.8927         0.352393   
    170. A(C  24,C  28,H  33)          114.8440         0.341548   
    171. A(C  25,C  29,C  26)          106.3678         0.442347   
    172. A(C  26,C  29,H  34)          125.3825         0.360424   
    173. A(C  25,C  29,H  34)          128.2492         0.349926   
    174. A(C  40,C  35,H  46)          118.5358         0.357830   
    175. A(C  36,C  35,H  46)          121.0236         0.354371   
    176. A(C  36,C  35,C  40)          120.1968         0.439283   
    177. A(C  37,C  36,C  41)          121.7665         0.420702   
    178. A(C  35,C  36,C  41)          117.1340         0.432431   
    179. A(C  35,C  36,C  37)          121.0671         0.422967   
    180. A(C  38,C  37,C  44)          126.3722         0.396656   
    181. A(C  36,C  37,C  44)          115.4362         0.405903   
    182. A(C  36,C  37,C  38)          118.0455         0.402149   
    183. A(C  39,C  38,C  52)          116.2444         0.400982   
    184. A(C  37,C  38,C  52)          127.9572         0.392117   
    185. A(C  37,C  38,C  39)          115.7949         0.401904   
    186. A(C  40,C  39,C  49)          116.9867         0.433204   
    187. A(C  38,C  39,C  49)          121.4194         0.422153   
    188. A(C  38,C  39,C  40)          121.5927         0.421739   
    189. A(C  39,C  40,H  45)          120.8914         0.353583   
    190. A(C  35,C  40,H  45)          118.2791         0.357810   
    191. A(C  35,C  40,C  39)          120.8076         0.438269   
    192. A(C  42,C  41,H  47)          118.1167         0.357164   
    193. A(C  36,C  41,H  47)          120.8586         0.352630   
    194. A(C  36,C  41,C  42)          121.0095         0.435968   
    195. A(C  43,C  42,H  48)          120.9121         0.354365   
    196. A(C  41,C  42,H  48)          118.9214         0.357103   
    197. A(C  41,C  42,C  43)          119.9700         0.438331   
    198. A(C  44,C  43,C  61)          121.0409         0.419721   
    199. A(C  42,C  43,C  61)          118.3946         0.430074   
    200. A(C  42,C  43,C  44)          120.5533         0.424268   
    201. A(C  43,C  44,C  64)          116.0753         0.416760   
    202. A(C  37,C  44,C  64)          123.7033         0.409755   
    203. A(C  37,C  44,C  43)          120.0660         0.407143   
    204. A(C  50,C  49,H  53)          118.3899         0.357975   
    205. A(C  39,C  49,H  53)          120.9393         0.353921   
    206. A(C  39,C  49,C  50)          120.5974         0.438907   
    207. A(C  51,C  50,H  54)          120.9942         0.354174   
    208. A(C  49,C  50,H  54)          118.4707         0.357974   
    209. A(C  49,C  50,C  51)          120.3485         0.439242   
    210. A(C  52,C  51,C  58)          121.6244         0.422827   
    211. A(C  50,C  51,C  58)          117.0365         0.433548   
    212. A(C  50,C  51,C  52)          121.3189         0.423549   
    213. A(C  51,C  52,C  55)          115.0593         0.402919   
    214. A(C  38,C  52,C  55)          127.6438         0.392121   
    215. A(C  38,C  52,C  51)          117.1935         0.401990   
    216. A(C  52,C  55,C  56)          120.2297         0.403554   
    217. A(C  56,C  55,C  69)          115.0988         0.420230   
    218. A(C  52,C  55,C  69)          124.5451         0.409138   
    219. A(C  55,C  56,C  57)          119.3584         0.422746   
    220. A(C  57,C  56,C  72)          118.8324         0.419385   
    221. A(C  55,C  56,C  72)          121.7920         0.411175   
    222. A(C  58,C  57,H  59)          117.6848         0.357878   
    223. A(C  56,C  57,H  59)          121.3458         0.353465   
    224. A(C  56,C  57,C  58)          120.6962         0.436963   
    225. A(C  57,C  58,H  60)          118.1271         0.357398   
    226. A(C  51,C  58,H  60)          120.8122         0.353591   
    227. A(C  51,C  58,C  57)          121.0605         0.437751   
    228. A(C  43,C  61,H  65)          120.7737         0.350769   
    229. A(C  43,C  61,C  62)          120.5195         0.430752   
    230. A(C  62,C  61,H  65)          118.7002         0.354896   
    231. A(C  61,C  62,C  63)          119.6665         0.436353   
    232. A(C  63,C  62,H  66)          120.1673         0.355644   
    233. A(C  61,C  62,H  66)          120.1221         0.355480   
    234. A(C  62,C  63,C  64)          120.3627         0.434166   
    235. A(C  64,C  63,H  67)          119.9096         0.353692   
    236. A(C  62,C  63,H  67)          119.7253         0.355533   
    237. A(C  44,C  64,C  63)          122.0184         0.425559   
    238. A(C  63,C  64,H  68)          115.5804         0.356106   
    239. A(C  44,C  64,H  68)          122.3653         0.351258   
    240. A(C  70,C  69,O  78)          117.3775         0.462258   
    241. A(C  55,C  69,O  78)          119.2232         0.450826   
    242. A(C  55,C  69,C  70)          123.3974         0.436761   
    243. A(C  69,C  70,C  71)          121.9601         0.440379   
    244. A(C  17,C  70,C  71)          112.4947         0.400976   
    245. A(C  17,C  70,C  69)          119.9330         0.407520   
    246. A(C  70,C  71,C  72)          117.5477         0.419010   
    247. A(C   7,C  71,C  72)          135.2248         0.373370   
    248. A(C   7,C  71,C  70)          103.0169         0.385564   
    249. A(C  71,C  72,O  73)          122.8740         0.419264   
    250. A(C  56,C  72,O  73)          118.2456         0.420561   
    251. A(C  56,C  72,C  71)          118.7005         0.406683   
    252. A(C  72,O  73,C  74)          125.3531         0.427386   
    253. A(H  76,C  74,H  77)          108.5845         0.284257   
    254. A(H  75,C  74,H  77)          110.4250         0.284616   
    255. A(O  73,C  74,H  77)          110.5456         0.343404   
    256. A(H  75,C  74,H  76)          108.3817         0.285045   
    257. A(O  73,C  74,H  76)          108.9988         0.343963   
    258. A(O  73,C  74,H  75)          109.8530         0.344431   
    259. A(C  69,O  78,C  79)          128.0728         0.444839   
    260. A(H  81,C  79,H  82)          107.3499         0.281535   
    261. A(H  80,C  79,H  82)          108.0489         0.284933   
    262. A(O  78,C  79,H  82)          112.4871         0.336372   
    263. A(H  80,C  79,H  81)          112.0400         0.290000   
    264. A(O  78,C  79,H  81)          110.1313         0.342770   
    265. A(O  78,C  79,H  80)          106.8326         0.347249   
    266. D(H  16,C   2,C   0,C   3)    179.9727         0.031129   
    267. D(C   8,C   2,C   0,C   3)      0.0103         0.031129   
    268. D(H  16,C   2,C   0,H   6)      0.0384         0.031129   
    269. D(C   8,C   2,C   0,H   6)   -179.9240         0.031129   
    270. D(C   0,C   3,C   1,H   9)     -0.0865         0.018310   
    271. D(C   1,C   3,C   0,C   2)   -179.6983         0.024564   
    272. D(N  10,C   3,C   0,C   2)      0.0053         0.024564   
    273. D(N  10,C   3,C   1,H   9)   -179.7571         0.018310   
    274. D(C   1,C   3,C   0,H   6)      0.2337         0.024564   
    275. D(N  10,C   3,C   1,C   5)      0.0209         0.018310   
    276. D(N  10,C   3,C   0,H   6)    179.9373         0.024564   
    277. D(C   0,C   3,C   1,C   5)    179.6915         0.018310   
    278. D(N  14,C   5,C   1,C   3)      0.1770         0.028413   
    279. D(N  14,C   5,C   1,H   9)    179.9387         0.028413   
    280. D(C   4,C   5,C   1,C   3)   -179.7933         0.028413   
    281. D(C   4,C   5,C   1,H   9)     -0.0316         0.028413   
    282. D(C   1,C   5,C   4,C   7)   -179.1519         0.017209   
    283. D(N  14,C   5,C   4,H  11)    179.0930         0.017209   
    284. D(N  14,C   5,C   4,C   7)      0.8741         0.017209   
    285. D(C   1,C   5,C   4,H  11)     -0.9330         0.017209   
    286. D(C  71,C   7,C   4,H  11)    -10.1187         0.019070   
    287. D(C  13,C   7,C   4,H  11)   -179.8672         0.019070   
    288. D(C  71,C   7,C   4,C   5)    168.0897         0.019070   
    289. D(C  13,C   7,C   4,C   5)     -1.6588         0.019070   
    290. D(C  15,C   8,C   2,C   0)    179.7896         0.023426   
    291. D(N  10,C   8,C   2,C   0)     -0.0231         0.023426   
    292. D(N  10,C   8,C   2,H  16)   -179.9841         0.023426   
    293. D(C  15,C   8,C   2,H  16)     -0.1715         0.023426   
    294. D(Ni 12,N  10,C   3,C   0)   -179.7630         0.030065   
    295. D(C   8,N  10,C   3,C   0)     -0.0186         0.030065   
    296. D(C   8,N  10,C   3,C   1)    179.6794         0.030065   
    297. D(Ni 12,N  10,C   8,C  15)     -0.0335         0.027832   
    298. D(Ni 12,N  10,C   8,C   2)    179.7708         0.027832   
    299. D(C   3,N  10,C   8,C  15)   -179.7792         0.027832   
    300. D(Ni 12,N  10,C   3,C   1)     -0.0651         0.030065   
    301. D(C   3,N  10,C   8,C   2)      0.0252         0.027832   
    302. D(N  19,Ni 12,N  10,C   8)      0.2823         0.003338   
    303. D(N  14,Ni 12,N  10,C   8)   -179.7167         0.003338   
    304. D(N  14,Ni 12,N  10,C   3)     -0.0346         0.003338   
    305. D(N  19,Ni 12,N  10,C   3)    179.9643         0.003338   
    306. D(C  17,C  13,C   7,C  71)      6.2743         0.022649   
    307. D(C  17,C  13,C   7,C   4)   -178.5035         0.022649   
    308. D(N  14,C  13,C   7,C  71)   -173.1303         0.022649   
    309. D(N  14,C  13,C   7,C   4)      2.0919         0.022649   
    310. D(Ni 12,N  14,C  13,C  17)     -0.1934         0.028473   
    311. D(Ni 12,N  14,C  13,C   7)    179.1390         0.028473   
    312. D(C   5,N  14,C  13,C   7)     -1.5738         0.028473   
    313. D(C  13,N  14,Ni 12,N  22)     -0.6600         0.003040   
    314. D(C  13,N  14,Ni 12,N  10)    179.3397         0.003040   
    315. D(C   5,N  14,Ni 12,N  10)      0.2150         0.003040   
    316. D(C   5,N  14,Ni 12,N  22)   -179.7847         0.003040   
    317. D(C  13,N  14,C   5,C   1)   -179.6170         0.025566   
    318. D(C   5,N  14,C  13,C  17)    179.0938         0.028473   
    319. D(C  13,N  14,C   5,C   4)      0.3566         0.025566   
    320. D(Ni 12,N  14,C   5,C   4)    179.6576         0.025566   
    321. D(Ni 12,N  14,C   5,C   1)     -0.3161         0.025566   
    322. D(H  23,C  15,C   8,N  10)    179.8333         0.037791   
    323. D(H  23,C  15,C   8,C   2)      0.0475         0.037791   
    324. D(C  18,C  15,C   8,N  10)     -0.2370         0.037791   
    325. D(C  18,C  15,C   8,C   2)    179.9771         0.037791   
    326. D(C  70,C  17,C  13,C   7)     -3.8602         0.045021   
    327. D(C  20,C  17,C  13,N  14)      1.4876         0.045021   
    328. D(C  20,C  17,C  13,C   7)   -177.8408         0.045021   
    329. D(C  70,C  17,C  13,N  14)    175.4683         0.045021   
    330. D(C  21,C  18,C  15,H  23)     -0.1984         0.013943   
    331. D(C  21,C  18,C  15,C   8)    179.8708         0.013943   
    332. D(N  19,C  18,C  15,H  23)   -179.9638         0.013943   
    333. D(N  19,C  18,C  15,C   8)      0.1054         0.013943   
    334. D(C  24,N  19,C  18,C  21)     -0.0977         0.029834   
    335. D(Ni 12,N  19,C  18,C  21)   -179.5055         0.029834   
    336. D(Ni 12,N  19,C  18,C  15)      0.2827         0.029834   
    337. D(C  24,N  19,N  14,C  13)     -0.3003         0.001500   
    338. D(C  24,N  19,N  14,C   5)   -179.4252         0.001500   
    339. D(C  18,N  19,N  14,C  13)    178.9454         0.001500   
    340. D(C  18,N  19,N  14,C   5)     -0.1795         0.001500   
    341. D(C  24,N  19,Ni 12,N  22)      0.3591         0.003113   
    342. D(C  24,N  19,Ni 12,N  10)   -179.6406         0.003113   
    343. D(C  24,N  19,C  18,C  15)    179.6905         0.029834   
    344. D(C  18,N  19,Ni 12,N  22)    179.6056         0.003113   
    345. D(C  18,N  19,Ni 12,N  10)     -0.3941         0.003113   
    346. D(C  26,C  20,C  17,C  70)      8.2803         0.009737   
    347. D(C  26,C  20,C  17,C  13)   -179.9989         0.009737   
    348. D(N  22,C  20,C  17,C  70)   -173.4685         0.009737   
    349. D(N  22,C  20,C  17,C  13)     -1.7476         0.009737   
    350. D(H  30,C  21,C  18,N  19)   -179.9431         0.021452   
    351. D(H  30,C  21,C  18,C  15)      0.2674         0.021452   
    352. D(C  27,C  21,C  18,N  19)      0.0571         0.021452   
    353. D(C  27,C  21,C  18,C  15)   -179.7324         0.021452   
    354. D(C  25,N  22,C  20,C  26)     -0.2436         0.025596   
    355. D(C  25,N  22,C  20,C  17)   -178.7507         0.025596   
    356. D(Ni 12,N  22,C  20,C  26)    179.1773         0.025596   
    357. D(Ni 12,N  22,C  20,C  17)      0.6702         0.025596   
    358. D(C  25,N  22,Ni 12,N  19)     -0.3396         0.003618   
    359. D(C  25,N  22,Ni 12,N  14)    179.6594         0.003618   
    360. D(C  20,N  22,Ni 12,N  19)   -179.6402         0.003618   
    361. D(C  20,N  22,Ni 12,N  14)      0.3588         0.003618   
    362. D(C  25,N  22,N  10,C   8)     -0.0573         0.001500   
    363. D(C  25,N  22,N  10,C   3)    179.6244         0.001500   
    364. D(C  20,N  22,N  10,C   8)   -179.3577         0.001500   
    365. D(C  20,N  22,N  10,C   3)      0.3240         0.001500   
    366. D(C  28,C  24,N  19,C  18)   -179.6270         0.029212   
    367. D(C  28,C  24,N  19,Ni 12)     -0.2406         0.029212   
    368. D(C  27,C  24,N  19,C  18)      0.1057         0.029212   
    369. D(C  27,C  24,N  19,Ni 12)    179.4921         0.029212   
    370. D(C  29,C  25,N  22,C  20)     -0.0375         0.024588   
    371. D(C  29,C  25,N  22,Ni 12)   -179.4648         0.024588   
    372. D(C  28,C  25,N  22,C  20)    179.6562         0.024588   
    373. D(C  28,C  25,N  22,Ni 12)      0.2289         0.024588   
    374. D(H  31,C  26,C  20,N  22)   -179.9377         0.026772   
    375. D(H  31,C  26,C  20,C  17)     -1.4572         0.026772   
    376. D(C  29,C  26,C  20,N  22)      0.4491         0.026772   
    377. D(C  29,C  26,C  20,C  17)    178.9296         0.026772   
    378. D(H  32,C  27,C  24,C  28)     -0.2620         0.022198   
    379. D(H  32,C  27,C  24,N  19)   -179.9920         0.022198   
    380. D(C  21,C  27,C  24,C  28)    179.6553         0.022198   
    381. D(C  21,C  27,C  24,N  19)     -0.0747         0.022198   
    382. D(H  32,C  27,C  21,H  30)     -0.0668         0.029870   
    383. D(H  32,C  27,C  21,C  18)    179.9330         0.029870   
    384. D(C  24,C  27,C  21,H  30)   -179.9901         0.029870   
    385. D(C  24,C  27,C  21,C  18)      0.0097         0.029870   
    386. D(C  24,C  28,C  25,C  29)    179.6912         0.028335   
    387. D(C  24,C  28,C  25,N  22)      0.0323         0.028335   
    388. D(H  33,C  28,C  24,C  27)      0.0875         0.019204   
    389. D(H  33,C  28,C  24,N  19)    179.7937         0.019204   
    390. D(C  25,C  28,C  24,C  27)   -179.7345         0.019204   
    391. D(H  33,C  28,C  25,N  22)   -179.7775         0.028335   
    392. D(C  25,C  28,C  24,N  19)     -0.0283         0.019204   
    393. D(H  33,C  28,C  25,C  29)     -0.1186         0.028335   
    394. D(H  34,C  29,C  26,H  31)     -0.3948         0.035899   
    395. D(H  34,C  29,C  26,C  20)    179.2944         0.035899   
    396. D(C  25,C  29,C  26,H  31)    179.8546         0.035899   
    397. D(C  25,C  29,C  26,C  20)     -0.4562         0.035899   
    398. D(H  34,C  29,C  25,C  28)      0.8554         0.024716   
    399. D(H  34,C  29,C  25,N  22)   -179.4333         0.024716   
    400. D(C  26,C  29,C  25,C  28)   -179.4035         0.024716   
    401. D(C  26,C  29,C  25,N  22)      0.3078         0.024716   
    402. D(C  41,C  36,C  35,H  46)      0.0904         0.026857   
    403. D(C  41,C  36,C  35,C  40)    174.3347         0.026857   
    404. D(C  37,C  36,C  35,H  46)   -177.8746         0.026857   
    405. D(C  37,C  36,C  35,C  40)     -3.6303         0.026857   
    406. D(C  44,C  37,C  36,C  41)    -11.5320         0.019485   
    407. D(C  44,C  37,C  36,C  35)    166.3378         0.019485   
    408. D(C  38,C  37,C  36,C  41)    172.5788         0.019485   
    409. D(C  38,C  37,C  36,C  35)     -9.5514         0.019485   
    410. D(C  52,C  38,C  37,C  44)     21.6999         0.014957   
    411. D(C  52,C  38,C  37,C  36)   -162.9117         0.014957   
    412. D(C  39,C  38,C  37,C  44)   -157.5863         0.014957   
    413. D(C  39,C  38,C  37,C  36)     17.8021         0.014957   
    414. D(C  49,C  39,C  38,C  52)    -13.9622         0.019347   
    415. D(C  49,C  39,C  38,C  37)    165.4103         0.019347   
    416. D(C  40,C  39,C  38,C  52)    166.4439         0.019347   
    417. D(C  40,C  39,C  38,C  37)    -14.1836         0.019347   
    418. D(H  45,C  40,C  39,C  49)      3.5551         0.026137   
    419. D(H  45,C  40,C  39,C  38)   -176.8338         0.026137   
    420. D(C  35,C  40,C  39,C  49)   -178.1745         0.026137   
    421. D(C  35,C  40,C  39,C  38)      1.4366         0.026137   
    422. D(H  45,C  40,C  35,H  46)      0.6470         0.030346   
    423. D(H  45,C  40,C  35,C  36)   -173.7390         0.030346   
    424. D(C  39,C  40,C  35,H  46)   -177.6677         0.030346   
    425. D(C  39,C  40,C  35,C  36)      7.9463         0.030346   
    426. D(H  47,C  41,C  36,C  37)   -177.5357         0.025201   
    427. D(H  47,C  41,C  36,C  35)      4.5145         0.025201   
    428. D(C  42,C  41,C  36,C  37)      3.9081         0.025201   
    429. D(C  42,C  41,C  36,C  35)   -174.0417         0.025201   
    430. D(H  48,C  42,C  41,H  47)      1.1402         0.029579   
    431. D(H  48,C  42,C  41,C  36)    179.7349         0.029579   
    432. D(C  43,C  42,C  41,H  47)   -173.8121         0.029579   
    433. D(C  43,C  42,C  41,C  36)      4.7826         0.029579   
    434. D(C  61,C  43,C  42,H  48)     -1.0875         0.026852   
    435. D(C  61,C  43,C  42,C  41)    173.7625         0.026852   
    436. D(C  44,C  43,C  42,H  48)   -179.8779         0.026852   
    437. D(C  44,C  43,C  42,C  41)     -5.0278         0.026852   
    438. D(C  64,C  44,C  43,C  61)     -6.3293         0.020190   
    439. D(C  64,C  44,C  43,C  42)    172.4287         0.020190   
    440. D(C  37,C  44,C  43,C  61)    178.0368         0.020190   
    441. D(C  37,C  44,C  43,C  42)     -3.2052         0.020190   
    442. D(C  64,C  44,C  37,C  38)     11.2678         0.016619   
    443. D(C  64,C  44,C  37,C  36)   -164.2254         0.016619   
    444. D(C  43,C  44,C  37,C  38)   -173.4469         0.016619   
    445. D(C  43,C  44,C  37,C  36)     11.0598         0.016619   
    446. D(H  53,C  49,C  39,C  40)      2.7152         0.026443   
    447. D(H  53,C  49,C  39,C  38)   -176.8966         0.026443   
    448. D(C  50,C  49,C  39,C  40)    179.5487         0.026443   
    449. D(C  50,C  49,C  39,C  38)     -0.0631         0.026443   
    450. D(H  54,C  50,C  49,H  53)      0.6521         0.030514   
    451. D(H  54,C  50,C  49,C  39)   -176.2607         0.030514   
    452. D(C  51,C  50,C  49,H  53)   -174.4346         0.030514   
    453. D(C  51,C  50,C  49,C  39)      8.6526         0.030514   
    454. D(C  58,C  51,C  50,H  54)      1.1189         0.026681   
    455. D(C  58,C  51,C  50,C  49)    176.0801         0.026681   
    456. D(C  52,C  51,C  50,H  54)   -177.2737         0.026681   
    457. D(C  52,C  51,C  50,C  49)     -2.3125         0.026681   
    458. D(C  55,C  52,C  51,C  58)    -13.6510         0.019922   
    459. D(C  55,C  52,C  51,C  50)    164.6675         0.019922   
    460. D(C  38,C  52,C  51,C  58)    169.7621         0.019922   
    461. D(C  38,C  52,C  51,C  50)    -11.9194         0.019922   
    462. D(C  55,C  52,C  38,C  39)   -156.6985         0.014576   
    463. D(C  55,C  52,C  38,C  37)     24.0181         0.014576   
    464. D(C  51,C  52,C  38,C  39)     19.3961         0.014576   
    465. D(C  51,C  52,C  38,C  37)   -159.8873         0.014576   
    466. D(C  69,C  55,C  52,C  51)   -160.3953         0.014959   
    467. D(C  69,C  55,C  52,C  38)     15.7701         0.014959   
    468. D(C  56,C  55,C  52,C  51)     15.3125         0.014959   
    469. D(C  56,C  55,C  52,C  38)   -168.5221         0.014959   
    470. D(C  72,C  56,C  55,C  69)     -8.9428         0.020293   
    471. D(C  72,C  56,C  55,C  52)    174.9606         0.020293   
    472. D(C  57,C  56,C  55,C  69)    169.5284         0.020293   
    473. D(C  57,C  56,C  55,C  52)     -6.5682         0.020293   
    474. D(H  59,C  57,C  56,C  72)     -0.2259         0.025600   
    475. D(H  59,C  57,C  56,C  55)   -178.7427         0.025600   
    476. D(C  58,C  57,C  56,C  72)    173.6312         0.025600   
    477. D(C  58,C  57,C  56,C  55)     -4.8856         0.025600   
    478. D(H  60,C  58,C  57,H  59)      1.1151         0.029911   
    479. D(H  60,C  58,C  57,C  56)   -172.9611         0.029911   
    480. D(C  51,C  58,C  57,H  59)   -179.0609         0.029911   
    481. D(C  51,C  58,C  57,C  56)      6.8629         0.029911   
    482. D(H  60,C  58,C  51,C  52)   -177.1641         0.026147   
    483. D(H  60,C  58,C  51,C  50)      4.4486         0.026147   
    484. D(C  57,C  58,C  51,C  52)      3.0166         0.026147   
    485. D(C  57,C  58,C  51,C  50)   -175.3707         0.026147   
    486. D(H  65,C  61,C  43,C  44)   -177.9998         0.023642   
    487. D(H  65,C  61,C  43,C  42)      3.2161         0.023642   
    488. D(C  62,C  61,C  43,C  44)      2.9461         0.023642   
    489. D(C  62,C  61,C  43,C  42)   -175.8381         0.023642   
    490. D(H  66,C  62,C  61,H  65)      0.1463         0.027358   
    491. D(H  66,C  62,C  61,C  43)    179.2198         0.027358   
    492. D(C  63,C  62,C  61,H  65)   -177.4425         0.027358   
    493. D(C  63,C  62,C  61,C  43)      1.6310         0.027358   
    494. D(H  67,C  63,C  62,H  66)     -0.6417         0.027516   
    495. D(H  67,C  63,C  62,C  61)    176.9459         0.027516   
    496. D(C  64,C  63,C  62,H  66)    179.9195         0.027516   
    497. D(C  64,C  63,C  62,C  61)     -2.4928         0.027516   
    498. D(H  68,C  64,C  63,H  67)     -2.8103         0.025785   
    499. D(H  68,C  64,C  63,C  62)    176.6274         0.025785   
    500. D(C  44,C  64,C  63,H  67)    179.3202         0.025785   
    501. D(C  44,C  64,C  63,C  62)     -1.2420         0.025785   
    502. D(H  68,C  64,C  44,C  43)   -172.2039         0.021759   
    503. D(H  68,C  64,C  44,C  37)      3.2537         0.021759   
    504. D(C  63,C  64,C  44,C  43)      5.5209         0.021759   
    505. D(C  63,C  64,C  44,C  37)   -179.0215         0.021759   
    506. D(O  78,C  69,C  55,C  56)   -166.4899         0.023858   
    507. D(O  78,C  69,C  55,C  52)      9.4153         0.023858   
    508. D(C  70,C  69,C  55,C  56)     14.0256         0.023858   
    509. D(C  70,C  69,C  55,C  52)   -170.0693         0.023858   
    510. D(C  71,C  70,C  69,O  78)    172.1119         0.031964   
    511. D(C  71,C  70,C  69,C  55)     -8.3947         0.031964   
    512. D(C  17,C  70,C  69,O  78)    -36.2934         0.031964   
    513. D(C  17,C  70,C  69,C  55)    143.2001         0.031964   
    514. D(C  71,C  70,C  17,C  20)    172.1605         0.010974   
    515. D(C  71,C  70,C  17,C  13)     -0.5699         0.010974   
    516. D(C  69,C  70,C  17,C  20)     18.0624         0.010974   
    517. D(C  69,C  70,C  17,C  13)   -154.6680         0.010974   
    518. D(C  72,C  71,C   7,C   4)    -20.4190         0.007326   
    519. D(C  70,C  71,C   7,C  13)     -5.8108         0.007326   
    520. D(C  70,C  71,C   7,C   4)   -175.5066         0.007326   
    521. D(C  72,C  71,C  70,C  69)     -2.9525         0.026274   
    522. D(C  72,C  71,C  70,C  17)   -156.4524         0.026274   
    523. D(C   7,C  71,C  70,C  69)    157.4979         0.026274   
    524. D(C   7,C  71,C  70,C  17)      3.9980         0.026274   
    525. D(C  72,C  71,C   7,C  13)    149.2768         0.007326   
    526. D(O  73,C  72,C  71,C  70)   -177.5175         0.017870   
    527. D(O  73,C  72,C  71,C   7)     30.0560         0.017870   
    528. D(C  56,C  72,C  71,C  70)      7.4457         0.017870   
    529. D(C  56,C  72,C  71,C   7)   -144.9807         0.017870   
    530. D(O  73,C  72,C  56,C  57)      4.9134         0.018512   
    531. D(O  73,C  72,C  56,C  55)   -176.6075         0.018512   
    532. D(C  71,C  72,C  56,C  57)   -179.8179         0.018512   
    533. D(C  71,C  72,C  56,C  55)     -1.3389         0.018512   
    534. D(C  74,O  73,C  72,C  71)      6.0086         0.030350   
    535. D(C  74,O  73,C  72,C  56)   -178.9333         0.030350   
    536. D(H  77,C  74,O  73,C  72)     59.2172         0.028111   
    537. D(H  76,C  74,O  73,C  72)    178.4923         0.028111   
    538. D(H  75,C  74,O  73,C  72)    -62.8938         0.028111   
    539. D(C  79,O  78,C  69,C  70)   -102.5060         0.054287   
    540. D(C  79,O  78,C  69,C  55)     77.9786         0.054287   
    541. D(H  82,C  79,O  78,C  69)    175.4469         0.025747   
    542. D(H  81,C  79,O  78,C  69)     55.7450         0.025747   
    543. D(H  80,C  79,O  78,C  69)    -66.1567         0.025747   
    -----------------------------------------------------------------

Number of atoms                         .... 83
Number of degrees of freedom            .... 543

         *************************************************************
         *                GEOMETRY OPTIMIZATION CYCLE   1            *
         *************************************************************
---------------------------------
CARTESIAN COORDINATES (ANGSTROEM)
---------------------------------
  C     -4.422460   -4.139540    0.473540
  C     -1.929230   -4.128000    0.428540
  C     -5.393320   -3.173650    0.389650
  C     -3.202170   -3.454190    0.385380
  C      0.571000   -4.178340    0.378960
  C     -0.704220   -3.490960    0.338820
  H     -4.594430   -5.219280    0.585150
  C      1.589470   -3.171790    0.277650
  C     -4.719180   -1.944420    0.254000
  H     -2.005210   -5.214380    0.537100
  N     -3.352030   -2.102710    0.249990
  H      0.724010   -5.258840    0.496930
  Ni    -1.949290   -0.707520    0.080350
  C      0.838250   -1.982350    0.146690
  N     -0.526990   -2.122290    0.199030
  C     -5.378050   -0.774260    0.140330
  H     -6.474540   -3.351820    0.423600
  C      1.523810   -0.856860   -0.000300
  C     -4.715090    0.538800   -0.003400
  N     -3.358970    0.710910   -0.038980
  C      0.817330    0.495560   -0.102040
  C     -5.422230    1.764170   -0.124920
  N     -0.558280    0.672390   -0.087510
  H     -6.470770   -0.780930    0.154810
  C     -3.231820    2.067040   -0.187330
  C     -0.752100    2.043480   -0.231390
  C      1.432200    1.733930   -0.256970
  C     -4.469480    2.751660   -0.243540
  C     -1.958190    2.720450   -0.281870
  C      0.483540    2.697310   -0.331670
  H     -6.511390    1.940200   -0.128960
  H      2.384100    2.036060   -0.315640
  H     -4.689350    3.838840   -0.357970
  H     -2.006960    3.813210   -0.402150
  H      0.675930    3.768630   -0.443740
  C      5.721740    4.484100    1.969990
  C      4.508160    3.805230    1.999230
  C      4.458490    2.388150    2.203970
  C      5.721880    1.640870    2.168880
  C      6.913370    2.422090    2.327770
  C      6.896570    3.811580    2.212690
  C      3.345180    4.571160    1.864480
  C      2.098380    3.999750    2.003590
  C      1.983550    2.665670    2.379890
  C      3.146120    1.848620    2.521030
  H      7.812960    4.387440    2.284450
  H      5.756860    5.561360    1.849090
  H      3.400260    5.636560    1.670460
  H      1.219430    4.626120    1.896560
  C      8.139680    1.826250    2.612690
  C      8.239460    0.462310    2.751270
  C      7.160570   -0.357520    2.433920
  C      5.911550    0.190520    2.005320
  H      9.026380    2.427920    2.780630
  H      9.197780    0.040010    3.033650
  C      4.994780   -0.768440    1.376280
  C      5.216480   -2.171570    1.514940
  C      6.384620   -2.622490    2.134450
  C      7.363940   -1.734240    2.519680
  H      6.594890   -3.679290    2.238670
  H      8.301270   -2.135420    2.889850
  C      0.699640    2.152300    2.641690
  C      0.540600    0.852430    3.103170
  C      1.659170    0.065840    3.339690
  C      2.937420    0.556580    3.067060
  H     -0.182900    2.767090    2.502130
  H     -0.448620    0.468460    3.314380
  H      1.538740   -0.930070    3.746310
  H      3.748160   -0.092610    3.330530
  C      3.917690   -0.414080    0.544720
  C      2.962660   -1.302190    0.129320
  C      3.078190   -2.671640    0.360830
  C      4.282920   -3.140960    1.004260
  O      4.528970   -4.450820    1.236280
  C      3.749500   -5.496200    0.800070
  H      2.743090   -5.429810    1.254910
  H      4.214790   -6.450730    1.118520
  H      3.675090   -5.491040   -0.308680
  O      3.802810    0.800380    0.153450
  C      4.505770    1.444400   -0.852920
  H      5.535990    1.502870   -0.527470
  H      4.402200    0.891740   -1.801870
  H      4.134210    2.500070   -1.034200

----------------------------
CARTESIAN COORDINATES (A.U.)
----------------------------
  NO LB      ZA    FRAG     MASS         X           Y           Z
   0 C     6.0000    0    12.011   -8.357238   -7.822597    0.894861
   1 C     6.0000    0    12.011   -3.645716   -7.800789    0.809823
   2 C     6.0000    0    12.011  -10.191898   -5.997329    0.736332
   3 C     6.0000    0    12.011   -6.051224   -6.527473    0.728263
   4 C     6.0000    0    12.011    1.079034   -7.895918    0.716131
   5 C     6.0000    0    12.011   -1.330783   -6.596958    0.640277
   6 H     1.0000    0     1.008   -8.682214   -9.863010    1.105773
   7 C     6.0000    0    12.011    3.003663   -5.993814    0.524682
   8 C     6.0000    0    12.011   -8.917958   -3.674421    0.479990
   9 H     1.0000    0     1.008   -3.789298   -9.853750    1.014972
  10 N     7.0000    0    14.007   -6.334419   -3.973546    0.472413
  11 H     1.0000    0     1.008    1.368181   -9.937767    0.939062
  12 Ni   28.0000    0    58.700   -3.683624   -1.337019    0.151839
  13 C     6.0000    0    12.011    1.584063   -3.746099    0.277204
  14 N     7.0000    0    14.007   -0.995867   -4.010547    0.376112
  15 C     6.0000    0    12.011  -10.163042   -1.463139    0.265185
  16 H     1.0000    0     1.008  -12.235107   -6.334022    0.800488
  17 C     6.0000    0    12.011    2.879584   -1.619231   -0.000567
  18 C     6.0000    0    12.011   -8.910229    1.018184   -0.006425
  19 N     7.0000    0    14.007   -6.347533    1.343425   -0.073662
  20 C     6.0000    0    12.011    1.544530    0.936473   -0.192828
  21 C     6.0000    0    12.011  -10.246530    3.333798   -0.236065
  22 N     7.0000    0    14.007   -1.054996    1.270633   -0.165370
  23 H     1.0000    0     1.008  -12.227983   -1.475744    0.292549
  24 C     6.0000    0    12.011   -6.107255    3.906140   -0.354002
  25 C     6.0000    0    12.011   -1.421263    3.861618   -0.437264
  26 C     6.0000    0    12.011    2.706466    3.276653   -0.485603
  27 C     6.0000    0    12.011   -8.446093    5.199884   -0.460224
  28 C     6.0000    0    12.011   -3.700443    5.140905   -0.532657
  29 C     6.0000    0    12.011    0.913758    5.097177   -0.626765
  30 H     1.0000    0     1.008  -12.304744    3.666447   -0.243699
  31 H     1.0000    0     1.008    4.505296    3.847596   -0.596473
  32 H     1.0000    0     1.008   -8.861587    7.254356   -0.676465
  33 H     1.0000    0     1.008   -3.792605    7.205923   -0.759953
  34 H     1.0000    0     1.008    1.277323    7.121679   -0.838547
  35 C     6.0000    0    12.011   10.812522    8.473721    3.722742
  36 C     6.0000    0    12.011    8.519188    7.190843    3.777997
  37 C     6.0000    0    12.011    8.425325    4.512949    4.164900
  38 C     6.0000    0    12.011   10.812786    3.100795    4.098589
  39 C     6.0000    0    12.011   13.064376    4.577087    4.398848
  40 C     6.0000    0    12.011   13.032629    7.202842    4.181378
  41 C     6.0000    0    12.011    6.321474    8.638241    3.523357
  42 C     6.0000    0    12.011    3.965364    7.558432    3.786236
  43 C     6.0000    0    12.011    3.748366    5.037386    4.497340
  44 C     6.0000    0    12.011    5.945305    3.493386    4.764056
  45 H     1.0000    0     1.008   14.764355    8.291060    4.316985
  46 H     1.0000    0     1.008   10.878889   10.509447    3.494274
  47 H     1.0000    0     1.008    6.425560   10.651555    3.156712
  48 H     1.0000    0     1.008    2.304389    8.742100    3.583979
  49 C     6.0000    0    12.011   15.381766    3.451112    4.937269
  50 C     6.0000    0    12.011   15.570323    0.873639    5.199147
  51 C     6.0000    0    12.011   13.531516   -0.675615    4.599442
  52 C     6.0000    0    12.011   11.171211    0.360031    3.789506
  53 H     1.0000    0     1.008   17.057386    4.588104    5.254629
  54 H     1.0000    0     1.008   17.381285    0.075608    5.732768
  55 C     6.0000    0    12.011    9.438766   -1.452141    2.600792
  56 C     6.0000    0    12.011    9.857719   -4.103673    2.862822
  57 C     6.0000    0    12.011   12.065183   -4.955788    4.033526
  58 C     6.0000    0    12.011   13.915830   -3.277239    4.761505
  59 H     1.0000    0     1.008   12.462536   -6.952850    4.230473
  60 H     1.0000    0     1.008   15.687127   -4.035359    5.461025
  61 C     6.0000    0    12.011    1.322128    4.067258    4.992071
  62 C     6.0000    0    12.011    1.021586    1.610859    5.864141
  63 C     6.0000    0    12.011    3.135377    0.124420    6.311099
  64 C     6.0000    0    12.011    5.550919    1.051784    5.795903
  65 H     1.0000    0     1.008   -0.345631    5.229042    4.728340
  66 H     1.0000    0     1.008   -0.847769    0.885261    6.263271
  67 H     1.0000    0     1.008    2.907797   -1.757578    7.079500
  68 H     1.0000    0     1.008    7.082996   -0.175008    6.293790
  69 C     6.0000    0    12.011    7.403361   -0.782498    1.029372
  70 C     6.0000    0    12.011    5.598616   -2.460782    0.244379
  71 C     6.0000    0    12.011    5.816936   -5.048668    0.681870
  72 C     6.0000    0    12.011    8.093546   -5.935554    1.897776
  73 O     8.0000    0    15.999    8.558513   -8.410831    2.336231
  74 C     6.0000    0    12.011    7.085528  -10.386313    1.511913
  75 H     1.0000    0     1.008    5.183689  -10.260854    2.371436
  76 H     1.0000    0     1.008    7.964799  -12.190113    2.113696
  77 H     1.0000    0     1.008    6.944914  -10.376562   -0.583321
  78 O     8.0000    0    15.999    7.186269    1.512499    0.289978
  79 C     6.0000    0    12.011    8.514671    2.729520   -1.611785
  80 H     1.0000    0     1.008   10.461505    2.840013   -0.996774
  81 H     1.0000    0     1.008    8.318952    1.685144   -3.405041
  82 H     1.0000    0     1.008    7.812525    4.724448   -1.954355

--------------------------------
INTERNAL COORDINATES (ANGSTROEM)
--------------------------------
 C      0   0   0     0.000000000000     0.00000000     0.00000000
 C      1   0   0     2.493662768800     0.00000000     0.00000000
 C      1   2   0     1.372060553984   134.67695419     0.00000000
 C      1   2   3     1.402349632652    29.14142410   359.59123813
 C      2   1   3     2.501228167301   178.57796623   190.07919091
 C      2   1   3     1.383661497658   152.68366898   359.85403470
 H      1   2   3     1.099030909756    99.37097510   179.77657045
 C      5   2   6     1.435509581821   134.14583347     1.13118570
 C      3   1   2     1.408499930777   106.35509657   359.80371870
 H      2   1   3     1.094431239686    85.65304931   180.32945641
 N      4   1   2     1.366486978387   113.21275910   179.70361949
 H      5   2  10     1.097638023667    99.03426700   359.21203226
 Ni    11   4   1     1.985701985017   128.74786382   180.23700028
 C      8   5   2     1.412886946504   102.68576708   357.79905763
 N     14   8   5     1.373391035649   116.05439100     2.09187251
 C      9   3   1     1.347703591818   122.13286570   179.78959736
 H      3   1   2     1.096327432750   125.55911975   179.76605638
 C     14   8   5     1.326018971885   116.73904551   181.49647926
 C     16   9   3     1.477938035947   124.07673944   179.97712004
 N     19  16   9     1.367460874358   124.00056696     0.10541911
 C     18  14   8     1.529217078900   121.27651791   182.15916470
 C     19  16   9     1.419980889625   123.47792805   179.87080715
 N     21  18  14     1.387004989861   124.76742282   358.25236470
 H     16   9   3     1.092836290439   118.84321973     0.04747002
 C     20  19  16     1.370132629310   102.67517494   179.69050172
 C     23  21  18     1.392176509966   105.22165662   181.24930088
 C     21  18  14     1.391268729865   126.18736494   180.00111399
 C     22  19  16     1.377294364688   106.35552701   180.26764822
 C     26  23  21     1.384012174585   127.35992089   179.65620641
 C     27  21  18     1.354118499246   109.25558258   178.92955277
 H     22  19  16     1.103300678918   129.02102162     0.26744069
 H     27  21  18     1.000419070090   134.09574491   358.54282496
 H     28  22  19     1.115077304136   124.85344216   179.93298139
 H     29  26  23     1.100440915679   121.89266277   180.22252687
 H     30  27  21     1.094212108962   125.38246912   179.29441781
 C     32  27  21     4.728302560973   143.09782824   247.85892745
 C     36  32  27     1.390861557057    30.85633845    18.30168682
 C     37  36  32     1.432655332905   121.06712610    86.80238129
 C     38  37  36     1.468268707901   118.04549352   350.44863970
 C     39  38  37     1.433596575261   115.79488774    17.80206645
 C     36  32  27     1.375286140881   115.79333409   124.57919634
 C     37  36  32     1.399045677525   117.13397683   264.76738935
 C     42  37  36     1.378539524352   121.00954602   185.95832835
 C     43  42  37     1.390883555622   119.96997871     4.78263226
 C     44  43  42     1.427956654454   120.55325966   354.97218763
 H     41  36  32     1.084681920795   118.27911152   151.53691565
 H     36  32  27     1.084591781271   118.89558909   275.35913748
 H     42  37  36     1.084322243062   120.85857233     4.51450972
 H     43  42  37     1.084595731275   118.92137492   179.73490052
 C     40  39  38     1.392853519973   121.41943522   165.41033158
 C     50  40  39     1.374588225033   120.59738261   359.93687501
 C     51  50  40     1.391702512572   120.34852669     8.65260993
 C     52  51  50     1.429719119967   121.31893776   357.68750973
 H     50  40  39     1.084641656263   120.93928356   183.10343085
 H     51  50  40     1.084644170592   118.47073209   183.73928207
 C     53  52  51     1.468251625608   115.05925923   164.66747716
 C     56  53  52     1.427288086723   120.22965431    15.31250635
 C     57  56  53     1.397022743587   119.35837844   353.43184154
 C     58  57  56     1.377119413050   120.69619945   355.11436773
 H     58  57  56     1.082544004325   121.34583880   181.25730381
 H     59  58  57     1.084692928990   118.12712235   187.03890624
 C     44  43  42     1.407306961896   118.39455932   173.76250649
 C     62  44  43     1.388495419114   120.51949738   184.16189924
 C     63  62  44     1.387755159745   119.66650747     1.63100139
 C     64  63  62     1.396093093959   120.36266012   357.50719349
 H     62  44  43     1.084583140796   120.77370198     3.21605074
 H     63  62  44     1.081942158066   120.12206306   179.21976618
 H     64  63  62     1.082441655425   119.72534195   176.94593436
 H     65  64  63     1.071523888954   115.58036589   176.62744311
 C     56  53  52     1.406124429523   124.54514877   199.60471037
 C     70  56  53     1.368714299260   123.39739566   189.93072572
 C     71  70  56     1.393677639736   121.96008256   351.60532768
 C     57  56  53     1.439460075202   121.79198105   174.96055838
 O     73  57  56     1.352814511491   118.24561606   183.39249550
 C     74  73  57     1.375017086948   125.35306437   181.06674392
 H     75  74  73     1.106412285633   109.85299554   297.10623171
 H     75  74  73     1.108617475733   108.99881671   178.49227366
 H     75  74  73     1.111256062391   110.54558523    59.21718590
 O     70  56  53     1.281094344262   119.22321089     9.41528686
 C     79  70  56     1.386252177239   128.07280842    77.97858654
 H     80  79  70     1.081984145817   106.83258577   293.84330644
 H     80  79  70     1.103025803415   110.13131603    55.74498024
 H     80  79  70     1.133736486535   112.48710328   175.44685115

---------------------------
INTERNAL COORDINATES (A.U.)
---------------------------
 C      0   0   0     0.000000000000     0.00000000     0.00000000
 C      1   0   0     4.712339703388     0.00000000     0.00000000
 C      1   2   0     2.592818686187   134.67695419     0.00000000
 C      1   2   3     2.650056749718    29.14142410   359.59123813
 C      2   1   3     4.726636234649   178.57796623   190.07919091
 C      2   1   3     2.614741292624   152.68366898   359.85403470
 H      1   2   3     2.076867432154    99.37097510   179.77657045
 C      5   2   6     2.712719972262   134.14583347     1.13118570
 C      3   1   2     2.661679128816   106.35509657   359.80371870
 H      2   1   3     2.068175315414    85.65304931   180.32945641
 N      4   1   2     2.582286154720   113.21275910   179.70361949
 H      5   2  10     2.074235258910    99.03426700   359.21203226
 Ni    11   4   1     3.752432935266   128.74786382   180.23700028
 C      8   5   2     2.669969387084   102.68576708   357.79905763
 N     14   8   5     2.595332932158   116.05439100     2.09187251
 C      9   3   1     2.546790698239   122.13286570   179.78959736
 H      3   1   2     2.071758601002   125.55911975   179.76605638
 C     14   8   5     2.505812705247   116.73904551   181.49647926
 C     16   9   3     2.792898130846   124.07673944   179.97712004
 N     19  16   9     2.584126551389   124.00056696     0.10541911
 C     18  14   8     2.889801478436   121.27651791   182.15916470
 C     19  16   9     2.683374996793   123.47792805   179.87080715
 N     21  18  14     2.621059577220   124.76742282   358.25236470
 H     16   9   3     2.065161298140   118.84321973     0.04747002
 C     20  19  16     2.589175436545   102.67517494   179.69050172
 C     23  21  18     2.630832333913   105.22165662   181.24930088
 C     21  18  14     2.629116878133   126.18736494   180.00111399
 C     22  19  16     2.602709155052   106.35552701   180.26764822
 C     26  23  21     2.615403975979   127.35992089   179.65620641
 C     27  21  18     2.558913116451   109.25558258   178.92955277
 H     22  19  16     2.084936126524   129.02102162     0.26744069
 H     27  21  18     1.890518061623   134.09574491   358.54282496
 H     28  22  19     2.107190722969   124.85344216   179.93298139
 H     29  26  23     2.079531957194   121.89266277   180.22252687
 H     30  27  21     2.067761218359   125.38246912   179.29441781
 C     32  27  21     8.935196918557   143.09782824   247.85892745
 C     36  32  27     2.628347433038    30.85633845    18.30168682
 C     37  36  32     2.707326223491   121.06712610    86.80238129
 C     38  37  36     2.774625748938   118.04549352   350.44863970
 C     39  38  37     2.709104913771   115.79488774    17.80206645
 C     36  32  27     2.598914162043   115.79333409   124.57919634
 C     37  36  32     2.643813179368   117.13397683   264.76738935
 C     42  37  36     2.605062165811   121.00954602   185.95832835
 C     43  42  37     2.628389004300   119.96997871     4.78263226
 C     44  43  42     2.698447008029   120.55325966   354.97218763
 H     41  36  32     2.049751772719   118.27911152   151.53691565
 H     36  32  27     2.049581433703   118.89558909   275.35913748
 H     42  37  36     2.049072080307   120.85857233     4.51450972
 H     43  42  37     2.049588898130   118.92137492   179.73490052
 C     40  39  38     2.632111697416   121.41943522   165.41033158
 C     50  40  39     2.597595292226   120.59738261   359.93687501
 C     51  50  40     2.629936608652   120.34852669     8.65260993
 C     52  51  50     2.701777585169   121.31893776   357.68750973
 H     50  40  39     2.049675683779   120.93928356   183.10343085
 H     51  50  40     2.049680435174   118.47073209   183.73928207
 C     53  52  51     2.774593468083   115.05925923   164.66747716
 C     56  53  52     2.697183598114   120.22965431    15.31250635
 C     57  56  53     2.639990388239   119.35837844   353.43184154
 C     58  57  56     2.602378544371   120.69619945   355.11436773
 H     58  57  56     2.045711696093   121.34583880   181.25730381
 H     59  58  57     2.049772575191   118.12712235   187.03890624
 C     44  43  42     2.659424744344   118.39455932   173.76250649
 C     62  44  43     2.623876080329   120.51949738   184.16189924
 C     63  62  44     2.622477192855   119.66650747     1.63100139
 C     64  63  62     2.638233605041   120.36266012   357.50719349
 H     62  44  43     2.049565105574   120.77370198     3.21605074
 H     63  62  44     2.044574371488   120.12206306   179.21976618
 H     64  63  62     2.045518284702   119.72534195   176.94593436
 H     65  64  63     2.024886696078   115.58036589   176.62744311
 C     56  53  52     2.657190082014   124.54514877   199.60471037
 C     70  56  53     2.586495181184   123.39739566   189.93072572
 C     71  70  56     2.633669058071   121.96008256   351.60532768
 C     57  56  53     2.720185322845   121.79198105   174.96055838
 O     73  57  56     2.556448936712   118.24561606   183.39249550
 C     74  73  57     2.598405723795   125.35306437   181.06674392
 H     75  74  73     2.090816211053   109.85299554   297.10623171
 H     75  74  73     2.094983416414   108.99881671   178.49227366
 H     75  74  73     2.099969622578   110.54558523    59.21718590
 O     70  56  53     2.420917462371   119.22321089     9.41528686
 C     79  70  56     2.619636967534   128.07280842    77.97858654
 H     80  79  70     2.044653716839   106.83258577   293.84330644
 H     80  79  70     2.084416687103   110.13131603    55.74498024
 H     80  79  70     2.142451467585   112.48710328   175.44685115

---------------------
BASIS SET INFORMATION
---------------------
There are 5 groups of distinct atoms

 Group   1 Type C   : 11s6p2d1f contracted to 5s3p2d1f pattern {62111/411/11/1}
 Group   2 Type H   : 5s1p contracted to 3s1p pattern {311/1}
 Group   3 Type N   : 11s6p2d1f contracted to 5s3p2d1f pattern {62111/411/11/1}
 Group   4 Type Ni  : 17s11p7d1f contracted to 6s4p4d1f pattern {842111/6311/4111/1}
 Group   5 Type O   : 11s6p2d1f contracted to 5s3p2d1f pattern {62111/411/11/1}

Atom   0C    basis set group =>   1
Atom   1C    basis set group =>   1
Atom   2C    basis set group =>   1
Atom   3C    basis set group =>   1
Atom   4C    basis set group =>   1
Atom   5C    basis set group =>   1
Atom   6H    basis set group =>   2
Atom   7C    basis set group =>   1
Atom   8C    basis set group =>   1
Atom   9H    basis set group =>   2
Atom  10N    basis set group =>   3
Atom  11H    basis set group =>   2
Atom  12Ni   basis set group =>   4
Atom  13C    basis set group =>   1
Atom  14N    basis set group =>   3
Atom  15C    basis set group =>   1
Atom  16H    basis set group =>   2
Atom  17C    basis set group =>   1
Atom  18C    basis set group =>   1
Atom  19N    basis set group =>   3
Atom  20C    basis set group =>   1
Atom  21C    basis set group =>   1
Atom  22N    basis set group =>   3
Atom  23H    basis set group =>   2
Atom  24C    basis set group =>   1
Atom  25C    basis set group =>   1
Atom  26C    basis set group =>   1
Atom  27C    basis set group =>   1
Atom  28C    basis set group =>   1
Atom  29C    basis set group =>   1
Atom  30H    basis set group =>   2
Atom  31H    basis set group =>   2
Atom  32H    basis set group =>   2
Atom  33H    basis set group =>   2
Atom  34H    basis set group =>   2
Atom  35C    basis set group =>   1
Atom  36C    basis set group =>   1
Atom  37C    basis set group =>   1
Atom  38C    basis set group =>   1
Atom  39C    basis set group =>   1
Atom  40C    basis set group =>   1
Atom  41C    basis set group =>   1
Atom  42C    basis set group =>   1
Atom  43C    basis set group =>   1
Atom  44C    basis set group =>   1
Atom  45H    basis set group =>   2
Atom  46H    basis set group =>   2
Atom  47H    basis set group =>   2
Atom  48H    basis set group =>   2
Atom  49C    basis set group =>   1
Atom  50C    basis set group =>   1
Atom  51C    basis set group =>   1
Atom  52C    basis set group =>   1
Atom  53H    basis set group =>   2
Atom  54H    basis set group =>   2
Atom  55C    basis set group =>   1
Atom  56C    basis set group =>   1
Atom  57C    basis set group =>   1
Atom  58C    basis set group =>   1
Atom  59H    basis set group =>   2
Atom  60H    basis set group =>   2
Atom  61C    basis set group =>   1
Atom  62C    basis set group =>   1
Atom  63C    basis set group =>   1
Atom  64C    basis set group =>   1
Atom  65H    basis set group =>   2
Atom  66H    basis set group =>   2
Atom  67H    basis set group =>   2
Atom  68H    basis set group =>   2
Atom  69C    basis set group =>   1
Atom  70C    basis set group =>   1
Atom  71C    basis set group =>   1
Atom  72C    basis set group =>   1
Atom  73O    basis set group =>   5
Atom  74C    basis set group =>   1
Atom  75H    basis set group =>   2
Atom  76H    basis set group =>   2
Atom  77H    basis set group =>   2
Atom  78O    basis set group =>   5
Atom  79C    basis set group =>   1
Atom  80H    basis set group =>   2
Atom  81H    basis set group =>   2
Atom  82H    basis set group =>   2


           ************************************************************
           *        Program running with 4 parallel MPI-processes     *
           *              working on a common directory               *
           ************************************************************
------------------------------------------------------------------------------
                           ORCA GTO INTEGRAL CALCULATION
------------------------------------------------------------------------------

                         BASIS SET STATISTICS AND STARTUP INFO

 # of primitive gaussian shells          ... 1284
 # of primitive gaussian functions       ... 2800
 # of contracted shells                  ...  721
 # of contracted basis functions         ... 1887
 Highest angular momentum                ...    3
 Maximum contraction depth               ...    8
 Integral package used                   ... LIBINT
 Integral threshhold            Thresh   ...  2.500e-11
 Primitive cut-off              TCut     ...  2.500e-12


------------------------------ INTEGRAL EVALUATION ----------------------------


 * One electron integrals 
 Pre-screening matrix                    ... done
 Shell pair data                         ... done (   0.069 sec)



           ************************************************************
           *        Program running with 4 parallel MPI-processes     *
           *              working on a common directory               *
           ************************************************************
-------------------------------------------------------------------------------
                                 ORCA SCF
-------------------------------------------------------------------------------

------------
SCF SETTINGS
------------
Hamiltonian:
 Density Functional     Method          .... DFT(GTOs)
 Exchange Functional    Exchange        .... B88
   X-Alpha parameter    XAlpha          ....  0.666667
   Becke's b parameter  XBeta           ....  0.004200
 Correlation Functional Correlation     .... LYP
 LDA part of GGA corr.  LDAOpt          .... VWN-5
 Gradients option       PostSCFGGA      .... off
 Hybrid DFT is turned on
   Fraction HF Exchange ScalHFX         ....  0.200000
   Scaling of DF-GGA-X  ScalDFX         ....  0.720000
   Scaling of DF-GGA-C  ScalDFC         ....  0.810000
   Scaling of DF-LDA-C  ScalLDAC        ....  1.000000
   Perturbative correction              ....  0.000000
   NL short-range parameter             ....  4.800000


General Settings:
 Integral files         IntName         .... Scheme-2.5
 Hartree-Fock type      HFTyp           .... RHF
 Total Charge           Charge          ....    0
 Multiplicity           Mult            ....    1
 Number of Electrons    NEL             ....  388
 Basis Dimension        Dim             .... 1887
 Nuclear Repulsion      ENuc            ....   8201.0430227486 Eh

Convergence Acceleration:
 DIIS                   CNVDIIS         .... on
   Start iteration      DIISMaxIt       ....    12
   Startup error        DIISStart       ....  0.200000
   # of expansion vecs  DIISMaxEq       ....     5
   Bias factor          DIISBfac        ....   1.050
   Max. coefficient     DIISMaxC        ....  10.000
 Newton-Raphson         CNVNR           .... off
 SOSCF                  CNVSOSCF        .... off
 Level Shifting         CNVShift        .... on
   Level shift para.    LevelShift      ....    0.2500
   Turn off err/grad.   ShiftErr        ....    0.0010
 Zerner damping         CNVZerner       .... off
 Static damping         CNVDamp         .... on
   Fraction old density DampFac         ....    0.7000
   Max. Damping (<1)    DampMax         ....    0.9800
   Min. Damping (>=0)   DampMin         ....    0.0000
   Turn off err/grad.   DampErr         ....    0.1000
 Fernandez-Rico         CNVRico         .... off

SCF Procedure:
 Maximum # iterations   MaxIter         ....   125
 SCF integral mode      SCFMode         .... Direct
   Integral package                     .... LIBINT
 Reset frequeny         DirectResetFreq ....    20
 Integral Threshold     Thresh          ....  2.500e-11 Eh
 Primitive CutOff       TCut            ....  2.500e-12 Eh

Convergence Tolerance:
 Convergence Check Mode ConvCheckMode   .... Total+1el-Energy
 Convergence forced     ConvForced      .... 0
 Energy Change          TolE            ....  1.000e-08 Eh
 1-El. energy change                    ....  1.000e-05 Eh
 DIIS Error             TolErr          ....  5.000e-07


Diagonalization of the overlap matrix:
Smallest eigenvalue                        ... 1.879e-06
Time for diagonalization                   ...    1.857 sec
Threshold for overlap eigenvalues          ... 1.000e-08
Number of eigenvalues below threshold      ... 0
Time for construction of square roots      ...    0.962 sec
Total time needed                          ...    2.829 sec

-------------------
DFT GRID GENERATION
-------------------

General Integration Accuracy     IntAcc      ...  4.340
Radial Grid Type                 RadialGrid  ... Gauss-Chebyshev
Angular Grid (max. acc.)         AngularGrid ... Lebedev-110
Angular grid pruning method      GridPruning ... 3 (G Style)
Weight generation scheme         WeightScheme... Becke
Basis function cutoff            BFCut       ...    1.0000e-11
Integration weight cutoff        WCut        ...    1.0000e-14
Grids for H and He will be reduced by one unit

# of grid points (after initial pruning)     ... 114872 (   0.0 sec)
# of grid points (after weights+screening)   ...  98579 (   1.5 sec)
nearest neighbour list constructed           ...    0.0 sec
Grid point re-assignment to atoms done       ...    0.0 sec
Grid point division into batches done        ...    0.1 sec
Reduced shell lists constructed in    1.5 sec

Total number of grid points                  ...    98579
Total number of batches                      ...     1580
Average number of points per batch           ...       62
Average number of grid points per atom       ...     1188
Average number of shells per batch           ...   221.01 (30.65%)
[...]
      py      :     1.032000
      dz2     :     0.039038  d :     0.388335
      dxz     :     0.073050
      dyz     :     0.070445
      dx2y2   :     0.102370
      dxy     :     0.103433
      f0      :     0.003772  f :     0.043917
      f+1     :     0.002740
      f-1     :     0.007260
      f+2     :     0.006129
      f-2     :     0.006766
      f+3     :     0.011190
      f-3     :     0.006059
 63 C s       :     2.763659  s :     2.763659
      pz      :     0.956971  p :     2.943598
      px      :     1.020746
      py      :     0.965881
      dz2     :     0.052070  d :     0.387704
      dxz     :     0.078721
      dyz     :     0.070372
      dx2y2   :     0.111905
      dxy     :     0.074637
      f0      :     0.005877  f :     0.043562
      f+1     :     0.005508
      f-1     :     0.003505
      f+2     :     0.006326
      f-2     :     0.007445
      f+3     :     0.008680
      f-3     :     0.006222
 64 C s       :     2.753683  s :     2.753683
      pz      :     0.954435  p :     2.904055
      px      :     0.978036
      py      :     0.971584
      dz2     :     0.083974  d :     0.384938
      dxz     :     0.052106
      dyz     :     0.075511
      dx2y2   :     0.068108
      dxy     :     0.105238
      f0      :     0.003985  f :     0.042584
      f+1     :     0.005396
      f-1     :     0.006466
      f+2     :     0.007549
      f-2     :     0.006964
      f+3     :     0.006688
      f-3     :     0.005536
 65 H s       :     0.796039  s :     0.796039
      pz      :     0.013498  p :     0.058352
      px      :     0.024931
      py      :     0.019922
 66 H s       :     0.799130  s :     0.799130
      pz      :     0.022030  p :     0.058242
      px      :     0.023049
      py      :     0.013163
 67 H s       :     0.798144  s :     0.798144
      pz      :     0.017769  p :     0.058399
      px      :     0.011780
      py      :     0.028850
 68 H s       :     0.779817  s :     0.779817
      pz      :     0.013567  p :     0.061917
      px      :     0.027734
      py      :     0.020616
 69 C s       :     2.703146  s :     2.703146
      pz      :     0.885844  p :     2.732076
      px      :     1.019104
      py      :     0.827129
      dz2     :     0.073580  d :     0.652852
      dxz     :     0.094699
      dyz     :     0.101892
      dx2y2   :     0.188430
      dxy     :     0.194251
      f0      :     0.006829  f :     0.092535
      f+1     :     0.005113
      f-1     :     0.012584
      f+2     :     0.012902
      f-2     :     0.011868
      f+3     :     0.028198
      f-3     :     0.015041
 70 C s       :     2.686582  s :     2.686582
      pz      :     0.865678  p :     2.778395
      px      :     0.955627
      py      :     0.957090
      dz2     :     0.044458  d :     0.487623
      dxz     :     0.085390
      dyz     :     0.069339
      dx2y2   :     0.151717
      dxy     :     0.136719
      f0      :     0.004169  f :     0.054961
      f+1     :     0.004969
      f-1     :     0.004333
      f+2     :     0.007780
      f-2     :     0.005927
      f+3     :     0.017187
      f-3     :     0.010596
 71 C s       :     2.677055  s :     2.677055
      pz      :     0.870167  p :     2.796488
      px      :     0.971296
      py      :     0.955026
      dz2     :     0.045461  d :     0.507391
      dxz     :     0.087160
      dyz     :     0.070933
      dx2y2   :     0.159632
      dxy     :     0.144204
      f0      :     0.004146  f :     0.058829
      f+1     :     0.005265
      f-1     :     0.004324
      f+2     :     0.009074
      f-2     :     0.006369
      f+3     :     0.019361
      f-3     :     0.010289
 72 C s       :     2.697921  s :     2.697921
      pz      :     0.876779  p :     2.735282
      px      :     1.028533
      py      :     0.829969
      dz2     :     0.048224  d :     0.654405
      dxz     :     0.083315
      dyz     :     0.113465
      dx2y2   :     0.195684
      dxy     :     0.213717
      f0      :     0.006805  f :     0.092712
      f+1     :     0.004785
      f-1     :     0.009014
      f+2     :     0.014377
      f-2     :     0.008760
      f+3     :     0.033017
      f-3     :     0.015954
 73 O s       :     3.253465  s :     3.253465
      pz      :     1.473441  p :     4.422938
      px      :     1.678381
      py      :     1.271116
      dz2     :     0.021506  d :     0.105749
      dxz     :     0.009990
      dyz     :     0.035545
      dx2y2   :     0.022769
      dxy     :     0.015939
      f0      :     0.001149  f :     0.006550
      f+1     :     0.000389
      f-1     :     0.001361
      f+2     :     0.001119
      f-2     :     0.000577
      f+3     :     0.000994
      f-3     :     0.000962
 74 C s       :     2.863515  s :     2.863515
      pz      :     0.924554  p :     3.014235
      px      :     1.106201
      py      :     0.983481
      dz2     :     0.083557  d :     0.388382
      dxz     :     0.133851
      dyz     :     0.073137
      dx2y2   :     0.075354
      dxy     :     0.022483
      f0      :     0.011960  f :     0.054278
      f+1     :     0.004218
      f-1     :     0.013167
      f+2     :     0.007135
      f-2     :     0.010692
      f+3     :     0.004010
      f-3     :     0.003095
 75 H s       :     0.830281  s :     0.830281
      pz      :     0.020376  p :     0.061761
      px      :     0.029611
      py      :     0.011774
 76 H s       :     0.828905  s :     0.828905
      pz      :     0.012521  p :     0.060012
      px      :     0.013706
      py      :     0.033785
 77 H s       :     0.834093  s :     0.834093
      pz      :     0.017482  p :     0.060838
      px      :     0.031503
      py      :     0.011854
 78 O s       :     3.248237  s :     3.248237
      pz      :     1.349116  p :     4.406996
      px      :     1.639710
      py      :     1.418170
      dz2     :     0.030103  d :     0.107535
      dxz     :     0.016259
      dyz     :     0.028981
      dx2y2   :     0.018973
      dxy     :     0.013220
      f0      :     0.001214  f :     0.006724
      f+1     :     0.000906
      f-1     :     0.001583
      f+2     :     0.000920
      f-2     :     0.000520
      f+3     :     0.000784
      f-3     :     0.000798
 79 C s       :     2.861848  s :     2.861848
      pz      :     0.831578  p :     3.009633
      px      :     1.075295
      py      :     1.102760
      dz2     :     0.115485  d :     0.388034
      dxz     :     0.108345
      dyz     :     0.082659
      dx2y2   :     0.058538
      dxy     :     0.023006
      f0      :     0.015915  f :     0.054748
      f+1     :     0.014399
      f-1     :     0.010021
      f+2     :     0.004194
      f-2     :     0.006516
      f+3     :     0.000829
      f-3     :     0.002874
 80 H s       :     0.827625  s :     0.827625
      pz      :     0.009100  p :     0.061608
      px      :     0.036690
      py      :     0.015818
 81 H s       :     0.830279  s :     0.830279
      pz      :     0.019720  p :     0.061023
      px      :     0.021319
      py      :     0.019984
 82 H s       :     0.826376  s :     0.826376
      pz      :     0.009967  p :     0.060180
      px      :     0.013071
      py      :     0.037141


                      *****************************
                      * MAYER POPULATION ANALYSIS *
                      *****************************

  NA   - Mulliken gross atomic population
  ZA   - Total nuclear charge
  QA   - Mulliken gross atomic charge
  VA   - Mayer's total valence
  BVA  - Mayer's bonded valence
  FA   - Mayer's free valence

  ATOM       NA         ZA         QA         VA         BVA        FA
  0 C      6.2008     6.0000    -0.2008     3.9070     3.9070     0.0000
  1 C      6.3281     6.0000    -0.3281     3.8811     3.8811     0.0000
  2 C      6.1814     6.0000    -0.1814     3.9014     3.9014     0.0000
  3 C      5.7331     6.0000     0.2669     3.7751     3.7751     0.0000
  4 C      6.2988     6.0000    -0.2988     3.9409     3.9409     0.0000
  5 C      5.6537     6.0000     0.3463     3.6416     3.6416     0.0000
  6 H      0.8941     1.0000     0.1059     0.9800     0.9800     0.0000
  7 C      5.9110     6.0000     0.0890     3.7772     3.7772    -0.0000
  8 C      5.7699     6.0000     0.2301     3.8488     3.8488     0.0000
  9 H      0.8961     1.0000     0.1039     0.9779     0.9779     0.0000
 10 N      7.1083     7.0000    -0.1083     3.3113     3.3113     0.0000
 11 H      0.8845     1.0000     0.1155     0.9819     0.9819     0.0000
 12 Ni    28.1508    28.0000    -0.1508     3.2197     3.2197     0.0000
 13 C      5.7400     6.0000     0.2600     3.6727     3.6727    -0.0000
 14 N      7.0642     7.0000    -0.0642     3.3389     3.3389     0.0000
 15 C      6.2697     6.0000    -0.2697     3.8398     3.8398     0.0000
 16 H      0.8969     1.0000     0.1031     0.9806     0.9806     0.0000
 17 C      6.1459     6.0000    -0.1459     3.7681     3.7681    -0.0000
 18 C      5.7931     6.0000     0.2069     3.8699     3.8699     0.0000
 19 N      7.0976     7.0000    -0.0976     3.3181     3.3181     0.0000
 20 C      5.8620     6.0000     0.1380     3.9438     3.9438     0.0000
 21 C      6.1580     6.0000    -0.1580     3.9068     3.9068     0.0000
 22 N      7.1910     7.0000    -0.1910     3.2513     3.2513     0.0000
 23 H      0.9018     1.0000     0.0982     0.9787     0.9787    -0.0000
 24 C      5.7491     6.0000     0.2509     3.8422     3.8422     0.0000
 25 C      5.7399     6.0000     0.2601     3.8114     3.8114     0.0000
 26 C      6.2021     6.0000    -0.2021     3.9319     3.9319     0.0000
 27 C      6.2097     6.0000    -0.2097     3.9362     3.9362     0.0000
 28 C      6.3598     6.0000    -0.3598     3.8810     3.8810    -0.0000
 29 C      6.2116     6.0000    -0.2116     3.8898     3.8898     0.0000
 30 H      0.9001     1.0000     0.0999     0.9816     0.9816     0.0000
 31 H      0.8090     1.0000     0.1910     0.9640     0.9640    -0.0000
 32 H      0.8790     1.0000     0.1210     0.9766     0.9766     0.0000
 33 H      0.8785     1.0000     0.1215     0.9731     0.9731     0.0000
 34 H      0.8899     1.0000     0.1101     0.9833     0.9833     0.0000
 35 C      6.1923     6.0000    -0.1923     3.9337     3.9337     0.0000
 36 C      5.8893     6.0000     0.1107     3.8000     3.8000    -0.0000
 37 C      5.8242     6.0000     0.1758     3.3177     3.3177    -0.0000
 38 C      5.9755     6.0000     0.0245     3.4650     3.4650     0.0000
 39 C      5.8327     6.0000     0.1673     3.7927     3.7927     0.0000
 40 C      6.1541     6.0000    -0.1541     3.9310     3.9310     0.0000
 41 C      6.1392     6.0000    -0.1392     3.8635     3.8635     0.0000
 42 C      6.2451     6.0000    -0.2451     3.9498     3.9498     0.0000
 43 C      5.8781     6.0000     0.1219     3.7537     3.7537    -0.0000
 44 C      5.9487     6.0000     0.0513     3.6540     3.6540    -0.0000
 45 H      0.9035     1.0000     0.0965     0.9784     0.9784     0.0000
 46 H      0.8991     1.0000     0.1009     0.9789     0.9789     0.0000
 47 H      0.9074     1.0000     0.0926     0.9798     0.9798     0.0000
 48 H      0.9071     1.0000     0.0929     0.9827     0.9827    -0.0000
 49 C      6.1496     6.0000    -0.1496     3.8845     3.8845     0.0000
 50 C      6.2104     6.0000    -0.2104     3.9380     3.9380     0.0000
 51 C      5.8113     6.0000     0.1887     3.7457     3.7457     0.0000
 52 C      6.1388     6.0000    -0.1388     3.3941     3.3941    -0.0000
 53 H      0.9056     1.0000     0.0944     0.9781     0.9781    -0.0000
 54 H      0.8966     1.0000     0.1034     0.9780     0.9780     0.0000
 55 C      6.1180     6.0000    -0.1180     3.7083     3.7083    -0.0000
 56 C      5.8579     6.0000     0.1421     3.7087     3.7087    -0.0000
 57 C      6.2545     6.0000    -0.2545     3.9261     3.9261    -0.0000
 58 C      6.1641     6.0000    -0.1641     3.8332     3.8332    -0.0000
 59 H      0.8695     1.0000     0.1305     0.9851     0.9851    -0.0000
 60 H      0.8934     1.0000     0.1066     0.9784     0.9784    -0.0000
 61 C      6.1433     6.0000    -0.1433     3.8847     3.8847     0.0000
 62 C      6.1064     6.0000    -0.1064     3.8643     3.8643     0.0000
 63 C      6.1465     6.0000    -0.1465     3.9030     3.9030     0.0000
 64 C      6.1700     6.0000    -0.1700     3.9459     3.9459    -0.0000
 65 H      0.9020     1.0000     0.0980     0.9749     0.9749    -0.0000
 66 H      0.8892     1.0000     0.1108     0.9677     0.9677    -0.0000
 67 H      0.8989     1.0000     0.1011     0.9741     0.9741     0.0000
 68 H      0.8552     1.0000     0.1448     0.9588     0.9588    -0.0000
 69 C      5.8058     6.0000     0.1942     3.7108     3.7108    -0.0000
 70 C      5.8853     6.0000     0.1147     3.6511     3.6511    -0.0000
 71 C      6.0991     6.0000    -0.0991     3.8574     3.8574    -0.0000
 72 C      5.7972     6.0000     0.2028     3.8964     3.8964     0.0000
 73 O      8.3341     8.0000    -0.3341     2.0234     2.0234    -0.0000
 74 C      6.2057     6.0000    -0.2057     3.8320     3.8320    -0.0000
 75 H      0.8661     1.0000     0.1339     0.9556     0.9556     0.0000
 76 H      0.8740     1.0000     0.1260     0.9668     0.9668    -0.0000
 77 H      0.8772     1.0000     0.1228     0.9609     0.9609    -0.0000
 78 O      8.4099     8.0000    -0.4099     1.8772     1.8772     0.0000
 79 C      6.1880     6.0000    -0.1880     3.8556     3.8556    -0.0000
 80 H      0.8712     1.0000     0.1288     0.9616     0.9616     0.0000
 81 H      0.8720     1.0000     0.1280     0.9584     0.9584    -0.0000
 82 H      0.8775     1.0000     0.1225     0.9706     0.9706    -0.0000

  Mayer bond orders larger than 0.1
B(  0-C ,  2-C ) :   1.6152 B(  0-C ,  3-C ) :   1.1240 B(  0-C ,  6-H ) :   0.9899 
B(  1-C ,  3-C ) :   1.2870 B(  1-C ,  5-C ) :   1.3282 B(  1-C ,  9-H ) :   1.0012 
B(  2-C ,  8-C ) :   1.1353 B(  2-C , 16-H ) :   0.9835 B(  3-C , 10-N ) :   1.2375 
B(  4-C ,  5-C ) :   1.0941 B(  4-C ,  7-C ) :   1.5081 B(  4-C , 11-H ) :   0.9890 
B(  5-C , 14-N ) :   1.1686 B(  7-C , 13-C ) :   1.1030 B(  7-C , 70-C ) :  -0.1043 
B(  7-C , 71-C ) :   1.1691 B(  8-C , 10-N ) :   1.2606 B(  8-C , 15-C ) :   1.2913 
B( 10-N , 12-Ni) :   0.7139 B( 12-Ni, 14-N ) :   0.7289 B( 12-Ni, 19-N ) :   0.7045 
B( 12-Ni, 22-N ) :   0.6804 B( 13-C , 14-N ) :   1.3308 B( 13-C , 17-C ) :   1.1943 
B( 13-C , 70-C ) :  -0.1125 B( 15-C , 18-C ) :   1.3344 B( 15-C , 23-H ) :   0.9897 
B( 17-C , 20-C ) :   1.3439 B( 17-C , 70-C ) :   1.0797 B( 18-C , 19-N ) :   1.2478 
B( 18-C , 21-C ) :   1.1242 B( 19-N , 24-C ) :   1.2596 B( 20-C , 22-N ) :   1.2068 
B( 20-C , 26-C ) :   1.2208 B( 21-C , 27-C ) :   1.6450 B( 21-C , 30-H ) :   0.9757 
B( 22-N , 25-C ) :   1.3034 B( 24-C , 27-C ) :   1.1422 B( 24-C , 28-C ) :   1.2993 
B( 25-C , 28-C ) :   1.3282 B( 25-C , 29-C ) :   1.0699 B( 26-C , 29-C ) :   1.6656 
B( 26-C , 31-H ) :   0.9099 B( 27-C , 32-H ) :   0.9765 B( 28-C , 33-H ) :   0.9815 
B( 29-C , 34-H ) :   1.0053 B( 35-C , 36-C ) :   1.1782 B( 35-C , 40-C ) :   1.5921 
B( 35-C , 46-H ) :   0.9806 B( 36-C , 37-C ) :   1.3281 B( 36-C , 41-C ) :   1.1396 
B( 37-C , 38-C ) :   1.0920 B( 37-C , 44-C ) :   0.9783 B( 38-C , 39-C ) :   1.3031 
B( 38-C , 52-C ) :   1.1297 B( 38-C , 55-C ) :  -0.1271 B( 39-C , 40-C ) :   1.2115 
B( 39-C , 49-C ) :   1.1755 B( 40-C , 45-H ) :   0.9580 B( 41-C , 42-C ) :   1.6165 
B( 41-C , 47-H ) :   0.9837 B( 42-C , 43-C ) :   1.1577 B( 42-C , 48-H ) :   0.9823 
B( 43-C , 44-C ) :   1.2631 B( 43-C , 61-C ) :   1.2720 B( 44-C , 64-C ) :   1.2883 
B( 49-C , 50-C ) :   1.5727 B( 49-C , 53-H ) :   0.9774 B( 50-C , 51-C ) :   1.1782 
B( 50-C , 54-H ) :   0.9907 B( 51-C , 52-C ) :   1.3194 B( 51-C , 58-C ) :   1.1640 
B( 52-C , 55-C ) :   1.0565 B( 55-C , 56-C ) :   1.2529 B( 55-C , 69-C ) :   1.2330 
B( 56-C , 57-C ) :   1.1937 B( 56-C , 72-C ) :   1.2035 B( 57-C , 58-C ) :   1.5377 
B( 57-C , 59-H ) :   0.9830 B( 58-C , 60-H ) :   0.9945 B( 61-C , 62-C ) :   1.4865 
B( 61-C , 65-H ) :   0.9768 B( 62-C , 63-C ) :   1.2622 B( 62-C , 66-H ) :   0.9783 
B( 63-C , 64-C ) :   1.5155 B( 63-C , 67-H ) :   0.9871 B( 64-C , 68-H ) :   0.9458 
B( 69-C , 70-C ) :   1.4590 B( 69-C , 78-O ) :   0.8001 B( 70-C , 71-C ) :   1.1208 
B( 71-C , 72-C ) :   1.4747 B( 72-C , 73-O ) :   1.1324 B( 73-O , 74-C ) :   0.8996 
B( 74-C , 75-H ) :   0.9706 B( 74-C , 76-H ) :   0.9767 B( 74-C , 77-H ) :   0.9673 
B( 78-O , 79-C ) :   0.9149 B( 79-C , 80-H ) :   0.9710 B( 79-C , 81-H ) :   0.9707 
B( 79-C , 82-H ) :   0.9744 

-------
TIMINGS
-------

Total SCF time: 0 days 4 hours 20 min 42 sec 

Total time                  ....   15642.014 sec
Sum of individual times     ....   15615.804 sec  ( 99.8%)

Fock matrix formation       ....   15486.984 sec  ( 99.0%)
  XC integration            ....      66.763 sec  (  0.4% of F)
    Basis function eval.    ....      10.387 sec  ( 15.6% of XC)
    Density eval.           ....      29.921 sec  ( 44.8% of XC)
    XC-Functional eval.     ....       0.553 sec  (  0.8% of XC)
    XC-Potential eval.      ....      21.648 sec  ( 32.4% of XC)
Diagonalization             ....      41.448 sec  (  0.3%)
Density matrix formation    ....       2.321 sec  (  0.0%)
Population analysis         ....      34.183 sec  (  0.2%)
Initial guess               ....       5.338 sec  (  0.0%)
Orbital Transformation      ....       0.000 sec  (  0.0%)
Orbital Orthonormalization  ....       5.021 sec  (  0.0%)
DIIS solution               ....      28.595 sec  (  0.2%)
Grid generation             ....      16.937 sec  (  0.1%)

-------------------------   --------------------
FINAL SINGLE POINT ENERGY     -3723.244843762234
-------------------------   --------------------

                                *** OPTIMIZATION RUN DONE ***

                            ***************************************
                            *     ORCA property calculations      *
                            ***************************************

                                    ---------------------
                                    Active property flags
                                    ---------------------
   (+) Dipole Moment


------------------------------------------------------------------------------
                       ORCA ELECTRIC PROPERTIES CALCULATION
------------------------------------------------------------------------------

Dipole Moment Calculation                       ... on
Quadrupole Moment Calculation                   ... off
Polarizability Calculation                      ... off
GBWName                                         ... Scheme-2.5.gbw
Electron density file                           ... Scheme-2.5.scfp.tmp
The origin for moment calculation is the CENTER OF MASS  = ( 2.382444, -0.200726  1.827290)

-------------
DIPOLE MOMENT
-------------
                                X             Y             Z
Electronic contribution:    -27.53255      -5.64783      -5.37780
Nuclear contribution   :     27.68000       5.48074       4.57151
                        -----------------------------------------
Total Dipole Moment    :      0.14745      -0.16709      -0.80629
                        -----------------------------------------
Magnitude (a.u.)       :      0.83652
Magnitude (Debye)      :      2.12627


Timings for individual modules:

Sum of individual times         ...  1434705.776 sec (=23911.763 min)
GTO integral calculation        ...      287.160 sec (=   4.786 min)   0.0 %
SCF iterations                  ...  1117188.105 sec (=18619.802 min)  77.9 %
SCF Gradient evaluation         ...   317131.290 sec (=5285.521 min)  22.1 %
Geometry relaxation             ...       99.221 sec (=   1.654 min)   0.0 %
                             ****ORCA TERMINATED NORMALLY****
TOTAL RUN TIME: 16 days 14 hours 32 minutes 29 seconds 552 msec
